  -30.0000000       0.00000000    
  -29.8799992       0.00000000    
  -29.7600002       0.00000000    
  -29.6399994       0.00000000    
  -29.5200005       0.00000000    
  -29.3999996       0.00000000    
  -29.2800007       0.00000000    
  -29.1599998       0.00000000    
  -29.0400009       0.00000000    
  -28.9200001       0.00000000    
  -28.7999992       2.96094724E-37
  -28.6800003       1.36937731E-35
  -28.5599995       3.26502653E-35
  -28.4400005      -9.36955874E-34
  -28.3199997      -1.09744814E-32
  -28.2000008      -6.76587336E-32
  -28.0799999      -2.89803462E-31
  -27.9599991      -9.16867632E-31
  -27.8400002      -2.03562538E-30
  -27.7199993      -2.04260613E-30
  -27.6000004       6.86440327E-30
  -27.4799995       4.67885300E-29
  -27.3600006       1.59157960E-28
  -27.2399998       3.82520694E-28
  -27.1200008       6.57533235E-28
  -27.0000000       6.18915788E-28
  -26.8799992      -6.75093623E-28
  -26.7600002      -4.79607747E-27
  -26.6399994      -1.31750649E-26
  -26.5200005      -2.47300575E-26
  -26.3999996      -3.16118474E-26
  -26.2800007      -1.45664137E-26
  -26.1599998       5.73599315E-26
  -26.0400009       2.14489382E-25
  -25.9200001       4.52593857E-25
  -25.7999992       6.75803776E-25
  -25.6800003       6.35154020E-25
  -25.5599995      -8.53075785E-26
  -25.4400005      -1.94970720E-24
  -25.3199997      -5.13047799E-24
  -25.2000008      -8.92930355E-24
  -25.0799999      -1.11197455E-23
  -24.9599991      -7.64671590E-24
  -24.8400002       6.62169213E-24
  -24.7199993       3.53733150E-23
  -24.6000004       7.63517266E-23
  -24.4799995       1.15894938E-22
  -24.3600006       1.25336821E-22
  -24.2399998       6.37651668E-23
  -24.1200008      -1.08146873E-22
  -24.0000000      -4.01282006E-22
  -23.8799992      -7.62899278E-22
  -23.7600002      -1.04750752E-21
  -23.6399994      -1.01720678E-21
  -23.5200005      -3.97041645E-22
  -23.3999996       1.00088571E-21
  -23.2800007       3.10034826E-21
  -23.1599998       5.38984950E-21
  -23.0400009       6.85719965E-21
  -22.9200001       6.14264969E-21
  -22.7999992       1.98168827E-21
  -22.6800003      -6.10047560E-21
  -22.5599995      -1.70386330E-20
  -22.4400005      -2.77658876E-20
  -22.3199997      -3.34375129E-20
  -22.2000008      -2.86126168E-20
  -22.0799999      -9.33790784E-21
  -21.9599991       2.43827544E-20
  -21.8400002       6.66678299E-20
  -21.7199993       1.05470860E-19
  -21.6000004       1.24710557E-19
  -21.4799995       1.08833924E-19
  -21.3600006       4.87982827E-20
  -21.2399998      -5.24328885E-20
  -21.1200008      -1.77098245E-19
  -21.0000000      -2.94227860E-19
  -20.8799992      -3.65967580E-19
  -20.7600002      -3.57332383E-19
  -20.6399994      -2.46753715E-19
  -20.5200005      -3.43720880E-20
  -20.3999996       2.54264412E-19
  -20.2800007       5.69945795E-19
  -20.1599998       8.46293034E-19
  -20.0400009       1.00947571E-18
  -19.9200001       9.89854572E-19
  -19.7999992       7.35139450E-19
  -19.6800003       2.25218352E-19
  -19.5599995      -5.12019888E-19
  -19.4400005      -1.38710258E-18
  -19.3199997      -2.24415837E-18
  -19.2000008      -2.87315892E-18
  -19.0799999      -3.04514300E-18
  -18.9599991      -2.56869131E-18
  -18.8400002      -1.35478422E-18
  -18.7199993       5.32249624E-19
  -18.6000004       2.86088501E-18
  -18.4799995       5.26671645E-18
  -18.3600006       7.32297206E-18
  -18.2399998       8.61216448E-18
  -18.1200008       8.75728008E-18
  -18.0000000       7.39447521E-18
  -17.8799992       4.12194729E-18
  -17.7600002      -1.48203458E-18
  -17.6399994      -9.65730884E-18
  -17.5200005      -2.00192250E-17
  -17.3999996      -3.09682095E-17
  -17.2800007      -3.92439364E-17
  -17.1599998      -4.00626666E-17
  -17.0400009      -2.82383910E-17
  -16.9200001      -3.75918252E-19
  -16.7999992       4.23372710E-17
  -16.6800003       9.18362187E-17
  -16.5599995       1.32840349E-16
  -16.4400005       1.45705708E-16
  -16.3199997       1.12719849E-16
  -16.2000008       2.65225885E-17
  -16.0799999      -1.02275986E-16
  -15.9600000      -2.42073175E-16
  -15.8400002      -3.45035880E-16
  -15.7200003      -3.60506513E-16
  -15.6000004      -2.54346233E-16
  -15.4799995      -2.79584797E-17
  -15.3599997       2.71158937E-16
  -15.2399998       5.54351777E-16
  -15.1199999       7.14715072E-16
  -15.0000000       6.63558411E-16
  -14.8800001       3.69180157E-16
  -14.7600002      -1.17124434E-16
  -14.6400003      -6.61330979E-16
  -14.5200005      -1.07920140E-15
  -14.3999996      -1.19533025E-15
  -14.2799997      -9.11143071E-16
  -14.1599998      -2.57073308E-16
  -14.0400000       5.94531632E-16
  -13.9200001       1.36827352E-15
  -13.8000002       1.77087548E-15
  -13.6800003       1.59812703E-15
  -13.5600004       8.26236647E-16
  -13.4399996      -3.50194708E-16
  -13.3199997      -1.55708997E-15
  -13.1999998      -2.35434015E-15
  -13.0799999      -2.39211549E-15
  -12.9600000      -1.55658345E-15
  -12.8400002      -4.70610778E-17
  -12.7200003       1.65586111E-15
  -12.6000004       2.93541640E-15
  -12.4799995       3.25734673E-15
  -12.3599997       2.38736406E-15
  -12.2399998       5.21599977E-16
  -12.1199999      -1.73408079E-15
  -12.0000000      -3.54919045E-15
  -11.8800001      -4.16736780E-15
  -11.7600002      -3.21489492E-15
  -11.6400003      -8.96475319E-16
  -11.5200005       2.01547403E-15
  -11.3999996       4.42060481E-15
  -11.2799997       5.29199885E-15
  -11.1599998       4.09742109E-15
  -11.0400000       1.07323638E-15
  -10.9200001      -2.77658205E-15
  -10.8000002      -5.98796728E-15
  -10.6800003      -7.16336865E-15
  -10.5600004      -5.53407070E-15
  -10.4399996      -1.34265808E-15
  -10.3199997       4.12051374E-15
  -10.1999998       8.87571859E-15
  -10.0799999       1.09122679E-14
  -9.96000004       8.93503546E-15
  -9.84000015       2.94070972E-15
  -9.72000027      -5.59237198E-15
  -9.60000038      -1.40006542E-14
  -9.47999954      -1.91661516E-14
  -9.35999966      -1.84914069E-14
  -9.23999977      -1.08435693E-14
  -9.11999989       2.81795050E-15
  -9.00000000       1.93519991E-14
  -8.88000011       3.39844052E-14
  -8.76000023       4.14396707E-14
  -8.64000034       3.74397338E-14
  -8.52000046       2.02190559E-14
  -8.39999962      -8.36931910E-15
  -8.27999973      -4.25623417E-14
  -8.15999985      -7.34792747E-14
  -8.03999996      -9.10168276E-14
  -7.92000008      -8.65453745E-14
  -7.80000019      -5.57930201E-14
  -7.67999983      -1.10449412E-15
  -7.55999994       6.77346363E-14
  -7.44000006       1.34665974E-13
  -7.32000017       1.80600231E-13
  -7.19999981       1.88217009E-13
  -7.07999992       1.47242366E-13
  -6.96000004       5.87682369E-14
  -6.84000015      -6.28279031E-14
  -6.71999979      -1.91390618E-13
  -6.59999990      -2.94149823E-13
  -6.48000002      -3.39735916E-13
  -6.36000013      -3.07231264E-13
  -6.23999977      -1.93763544E-13
  -6.11999989      -1.80922544E-14
  -6.00000000       1.81620140E-13
  -5.88000011       3.56173804E-13
  -5.76000023       4.58245529E-13
  -5.63999987       4.56487929E-13
  -5.51999998       3.46467999E-13
  -5.40000010       1.54429014E-13
  -5.28000021      -6.83461127E-14
  -5.15999985      -2.59904132E-13
  -5.03999996      -3.66937248E-13
  -4.92000008      -3.63013872E-13
  -4.80000019      -2.59288684E-13
  -4.67999983      -1.03108101E-13
  -4.55999994       3.63412642E-14
  -4.44000006       9.17160635E-14
  -4.32000017       2.32246642E-14
  -4.19999981      -1.62428922E-13
  -4.07999992      -4.07208935E-13
  -3.96000004      -6.14257722E-13
  -3.83999991      -6.75453833E-13
  -3.72000003      -5.06545977E-13
  -3.59999990      -7.93196279E-14
  -3.48000002       5.59612632E-13
  -3.35999990       1.29039314E-12
  -3.24000001       1.94313597E-12
  -3.11999989       2.33768105E-12
  -3.00000000       2.32968744E-12
  -2.88000011       1.85056115E-12
  -2.75999999       9.29915216E-13
  -2.64000010      -3.06249275E-13
  -2.51999998      -1.66186672E-12
  -2.40000010      -2.91494671E-12
  -2.27999997      -3.86756946E-12
  -2.16000009      -4.38774147E-12
  -2.03999996      -4.43112864E-12
  -1.91999996      -4.03640576E-12
  -1.79999995      -3.29593406E-12
  -1.67999995      -2.31141061E-12
  -1.55999994      -1.14958065E-12
  -1.44000006       1.85905558E-13
  -1.32000005       1.75443167E-12
  -1.20000005       3.64627859E-12
  -1.08000004       5.92455252E-12
 -0.959999979       8.55617487E-12
 -0.839999974       1.13519133E-11
 -0.720000029       1.39349331E-11
 -0.600000024       1.57515320E-11
 -0.479999989       1.61282116E-11
 -0.360000014       1.43687336E-11
 -0.239999995       9.87623091E-12
 -0.119999997       2.28061580E-12
  -1.11022302E-15  -8.44854828E-12
  0.119999997      -2.19197160E-11
  0.239999995      -3.72772438E-11
  0.360000014      -5.32024355E-11
  0.479999989      -6.79550860E-11
  0.600000024      -7.94495372E-11
  0.720000029      -8.53577348E-11
  0.839999974      -8.32321781E-11
  0.959999979      -7.06417078E-11
   1.08000004      -4.53133364E-11
   1.20000005      -5.27167112E-12
   1.32000005       5.10339514E-11
   1.44000006       1.24626295E-10
   1.55999994       2.15932883E-10
   1.67999995       3.24763716E-10
   1.79999995       4.50339432E-10
   1.91999996       5.91367899E-10
   2.03999996       7.46162798E-10
   2.16000009       9.12790787E-10
   2.27999997       1.08923537E-09
   2.40000010       1.27356181E-09
   2.51999998       1.46407408E-09
   2.64000010       1.65945391E-09
   2.75999999       1.85887405E-09
   2.88000011       2.06207940E-09
   3.00000000       2.26942487E-09
   3.11999989       2.48186804E-09
   3.24000001       2.70091127E-09
   3.35999990       2.92850122E-09
   3.48000002       3.16690518E-09
   3.59999990       3.41857920E-09
   3.72000003       3.68605790E-09
   3.83999991       3.97188504E-09
   3.96000004       4.27858815E-09
   4.07999992       4.60869432E-09
   4.19999981       4.96476948E-09
   4.32000017       5.34945155E-09
   4.44000006       5.76546499E-09
   4.55999994       6.21559337E-09
   4.67999983       6.70262601E-09
   4.80000019       7.22928650E-09
   4.92000008       7.79816745E-09
   5.03999996       8.41169712E-09
   5.15999985       9.07216258E-09
   5.28000021       9.78177450E-09
   5.40000010       1.05427711E-08
   5.51999998       1.13575505E-08
   5.63999987       1.22287762E-08
   5.76000023       1.31594611E-08
   5.88000011       1.41529890E-08
   6.00000000       1.52131001E-08
   6.11999989       1.63438543E-08
   6.23999977       1.75495671E-08
   6.36000013       1.88348039E-08
   6.48000002       2.02043982E-08
   6.59999990       2.16635332E-08
   6.71999979       2.32178721E-08
   6.84000015       2.48737049E-08
   6.96000004       2.66381139E-08
   7.07999992       2.85190875E-08
   7.19999981       3.05256052E-08
   7.32000017       3.26676393E-08
   7.44000006       3.49561056E-08
   7.55999994       3.74027351E-08
   7.67999983       4.00198701E-08
   7.80000019       4.28202789E-08
   7.92000008       4.58169040E-08
   8.03999996       4.90226562E-08
   8.15999985       5.24503214E-08
   8.27999973       5.61125191E-08
   8.39999962       6.00218399E-08
   8.52000046       6.41910205E-08
   8.64000034       6.86332271E-08
   8.76000023       7.33621945E-08
   8.88000011       7.83923824E-08
   9.00000000       8.37388470E-08
   9.11999989       8.94170782E-08
   9.23999977       9.54427435E-08
   9.35999966       1.01831532E-07
   9.47999954       1.08599174E-07
   9.60000038       1.15761779E-07
   9.72000027       1.23336392E-07
   9.84000015       1.31341679E-07
   9.96000004       1.39798559E-07
   10.0799999       1.48730606E-07
   10.1999998       1.58163942E-07
   10.3199997       1.68126732E-07
   10.4399996       1.78648349E-07
   10.5600004       1.89758524E-07
   10.6800003       2.01486657E-07
   10.8000002       2.13861640E-07
   10.9200001       2.26912348E-07
   11.0400000       2.40668669E-07
   11.1599998       2.55162774E-07
   11.2799997       2.70430178E-07
   11.3999996       2.86510442E-07
   11.5200005       3.03446939E-07
   11.6400003       3.21285739E-07
   11.7600002       3.40073967E-07
   11.8800001       3.59858035E-07
   12.0000000       3.80682224E-07
   12.1199999       4.02587915E-07
   12.2399998       4.25614274E-07
   12.3599997       4.49799444E-07
   12.4799995       4.75182929E-07
   12.6000004       5.01807733E-07
   12.7200003       5.29721888E-07
   12.8400002       5.58979480E-07
   12.9600000       5.89639853E-07
   13.0799999       6.21766333E-07
   13.1999998       6.55423889E-07
   13.3199997       6.90677325E-07
   13.4399996       7.27589509E-07
   13.5600004       7.66220921E-07
   13.6800003       8.06630794E-07
   13.8000002       8.48878699E-07
   13.9200001       8.93026481E-07
   14.0400000       9.39140762E-07
   14.1599998       9.87293674E-07
   14.2799997       1.03756304E-06
   14.3999996       1.09002997E-06
   14.5200005       1.14477780E-06
   14.6400003       1.20188793E-06
   14.7600002       1.26143857E-06
   14.8800001       1.32350294E-06
   15.0000000       1.38814994E-06
   15.1199999       1.45544618E-06
   15.2399998       1.52545874E-06
   15.3599997       1.59825913E-06
   15.4799995       1.67392534E-06
   15.6000004       1.75254377E-06
   15.7200003       1.83420764E-06
   15.8400002       1.91901540E-06
   15.9600000       2.00706631E-06
   16.0799999       2.09845621E-06
   16.2000008       2.19327467E-06
   16.3199997       2.29160469E-06
   16.4400005       2.39352175E-06
   16.5599995       2.49909908E-06
   16.6800003       2.60841011E-06
   16.7999992       2.72153534E-06
   16.9200001       2.83856298E-06
   17.0400009       2.95958989E-06
   17.1599998       3.08472022E-06
   17.2800007       3.21405992E-06
   17.3999996       3.34771084E-06
   17.5200005       3.48576532E-06
   17.6399994       3.62830428E-06
   17.7600002       3.77539641E-06
   17.8799992       3.92710217E-06
   18.0000000       4.08347978E-06
   18.1200008       4.24458813E-06
   18.2399998       4.41049406E-06
   18.3600006       4.58127442E-06
   18.4799995       4.75701154E-06
   18.6000004       4.93779089E-06
   18.7199993       5.12369297E-06
   18.8400002       5.31479009E-06
   18.9599991       5.51114181E-06
   19.0799999       5.71279406E-06
   19.2000008       5.91978323E-06
   19.3199997       6.13214115E-06
   19.4400005       6.34989919E-06
   19.5599995       6.57309283E-06
   19.6800003       6.80176254E-06
   19.7999992       7.03595197E-06
   19.9200001       7.27570341E-06
   20.0400009       7.52105097E-06
   20.1599998       7.77201967E-06
   20.2800007       8.02861723E-06
   20.3999996       8.29084274E-06
   20.5200005       8.55867893E-06
   20.6399994       8.83210214E-06
   20.7600002       9.11108691E-06
   20.8799992       9.39560505E-06
   21.0000000       9.68562927E-06
   21.1200008       9.98113137E-06
   21.2399998       1.02820777E-05
   21.3600006       1.05884337E-05
   21.4799995       1.09001476E-05
   21.6000004       1.12171620E-05
   21.7199993       1.15394023E-05
   21.8400002       1.18667867E-05
   21.9599991       1.21992216E-05
   22.0799999       1.25366041E-05
   22.2000008       1.28788270E-05
   22.3199997       1.32257792E-05
   22.4400005       1.35773425E-05
   22.5599995       1.39333961E-05
   22.6800003       1.42938088E-05
   22.7999992       1.46584443E-05
   22.9200001       1.50271517E-05
   23.0400009       1.53997680E-05
   23.1599998       1.57761169E-05
   23.2800007       1.61560074E-05
   23.3999996       1.65392412E-05
   23.5200005       1.69256073E-05
   23.6399994       1.73148910E-05
   23.7600002       1.77068687E-05
   23.8799992       1.81013183E-05
   24.0000000       1.84980072E-05
   24.1200008       1.88966987E-05
   24.2399998       1.92971474E-05
   24.3600006       1.96990986E-05
   24.4799995       2.01022867E-05
   24.6000004       2.05064334E-05
   24.7199993       2.09112495E-05
   24.8400002       2.13164330E-05
   24.9599991       2.17216839E-05
   25.0799999       2.21266946E-05
   25.2000008       2.25311505E-05
   25.3199997       2.29347388E-05
   25.4400005       2.33371429E-05
   25.5599995       2.37380336E-05
   25.6800003       2.41370817E-05
   25.7999992       2.45339452E-05
   25.9200001       2.49282766E-05
   26.0400009       2.53197195E-05
   26.1599998       2.57079118E-05
   26.2800007       2.60924862E-05
   26.3999996       2.64730734E-05
   26.5200005       2.68492950E-05
   26.6399994       2.72207726E-05
   26.7600002       2.75871244E-05
   26.8799992       2.79479591E-05
   27.0000000       2.83028821E-05
   27.1200008       2.86514951E-05
   27.2399998       2.89934014E-05
   27.3600006       2.93282083E-05
   27.4799995       2.96555245E-05
   27.6000004       2.99749681E-05
   27.7199993       3.02861681E-05
   27.8400002       3.05887552E-05
   27.9599991       3.08823510E-05
   28.0799999       3.11665899E-05
   28.2000008       3.14410827E-05
   28.3199997       3.17054291E-05
   28.4400005       3.19592364E-05
   28.5599995       3.22020896E-05
   28.6800003       3.24335888E-05
   28.7999992       3.26533518E-05
   28.9200001       3.28610040E-05
   29.0400009       3.30561961E-05
   29.1599998       3.32385935E-05
   29.2800007       3.34078504E-05
   29.3999996       3.35636432E-05
   29.5200005       3.37056154E-05
   29.6399994       3.38334175E-05
   29.7600002       3.39467042E-05
   29.8799992       3.40451224E-05
   30.0000000       3.41283558E-05
   30.1200008       3.41960913E-05
   30.2399998       3.42480525E-05
   30.3600006       3.42839630E-05
   30.4799995       3.43035645E-05
   30.6000004       3.43065840E-05
   30.7199993       3.42927560E-05
   30.8400002       3.42618077E-05
   30.9599991       3.42134663E-05
   31.0799999       3.41474843E-05
   31.2000008       3.40636252E-05
   31.3199997       3.39617000E-05
   31.4400005       3.38415230E-05
   31.5599995       3.37029487E-05
   31.6800003       3.35458390E-05
   31.7999992       3.33700555E-05
   31.9200001       3.31754600E-05
   32.0400009       3.29619070E-05
   32.1599998       3.27292510E-05
   32.2799988       3.24773464E-05
   32.4000015       3.22060587E-05
   32.5200005       3.19152859E-05
   32.6399994       3.16049518E-05
   32.7599983       3.12750053E-05
   32.8800011       3.09254319E-05
   33.0000000       3.05562353E-05
   33.1199989       3.01674190E-05
   33.2400017       2.97589959E-05
   33.3600006       2.93309749E-05
   33.4799995       2.88833544E-05
   33.5999985       2.84161324E-05
   33.7200012       2.79293145E-05
   33.8400002       2.74229114E-05
   33.9599991       2.68969543E-05
   34.0800018       2.63515049E-05
   34.2000008       2.57866359E-05
   34.3199997       2.52024529E-05
   34.4399986       2.45990723E-05
   34.5600014       2.39766250E-05
   34.6800003       2.33352366E-05
   34.7999992       2.26750435E-05
   34.9199982       2.19961803E-05
   35.0400009       2.12987816E-05
   35.1599998       2.05830002E-05
   35.2799988       1.98489925E-05
   35.4000015       1.90969331E-05
   35.5200005       1.83270040E-05
   35.6399994       1.75394034E-05
   35.7599983       1.67343278E-05
   35.8800011       1.59119772E-05
   36.0000000       1.50725518E-05
   36.1199989       1.42162544E-05
   36.2400017       1.33432868E-05
   36.3600006       1.24538619E-05
   36.4799995       1.15482035E-05
   36.5999985       1.06265506E-05
   36.7200012       9.68915811E-06
   36.8400002       8.73628960E-06
   36.9599991       7.76821707E-06
   37.0800018       6.78520883E-06
   37.2000008       5.78752406E-06
   37.3199997       4.77540243E-06
   37.4399986       3.74906494E-06
   37.5600014       2.70871169E-06
   37.6800003       1.65452980E-06
   37.7999992       5.86703777E-07
   37.9199982      -4.94576625E-07
   38.0400009      -1.58910620E-06
   38.1599998      -2.69665998E-06
   38.2799988      -3.81699647E-06
   38.4000015      -4.94986443E-06
   38.5200005      -6.09501694E-06
   38.6399994      -7.25222299E-06
   38.7599983      -8.42128065E-06
   38.8800011      -9.60202215E-06
   39.0000000      -1.07943151E-05
   39.1199989      -1.19980587E-05
   39.2400017      -1.32131654E-05
   39.3600006      -1.44395599E-05
   39.4799995      -1.56771675E-05
   39.5999985      -1.69259038E-05
   39.7200012      -1.81856813E-05
   39.8400002      -1.94564109E-05
   39.9599991      -2.07380072E-05
   40.0800018      -2.20303973E-05
   40.2000008      -2.33335304E-05
   40.3199997      -2.46473810E-05
   40.4399986      -2.59719618E-05
   40.5600014      -2.73073092E-05
   40.6800003      -2.86535051E-05
   40.7999992      -3.00106531E-05
   40.9199982      -3.13788805E-05
   41.0400009      -3.27583257E-05
   41.1599998      -3.41491468E-05
   41.2799988      -3.55514894E-05
   41.4000015      -3.69655172E-05
   41.5200005      -3.83914121E-05
   41.6399994      -3.98293778E-05
   41.7599983      -4.12796580E-05
   41.8800011      -4.27425402E-05
   42.0000000      -4.42183555E-05
   42.1199989      -4.57074602E-05
   42.2400017      -4.72102402E-05
   42.3600006      -4.87270809E-05
   42.4799995      -5.02583607E-05
   42.5999985      -5.18044653E-05
   42.7200012      -5.33657803E-05
   42.8400002      -5.49427023E-05
   42.9599991      -5.65356713E-05
   43.0800018      -5.81451714E-05
   43.2000008      -5.97717117E-05
   43.3199997      -6.14158780E-05
   43.4399986      -6.30782743E-05
   43.5600014      -6.47595371E-05
   43.6800003      -6.64602994E-05
   43.7999992      -6.81812089E-05
   43.9199982      -6.99229058E-05
   44.0400009      -7.16860231E-05
   44.1599998      -7.34712012E-05
   44.2799988      -7.52790656E-05
   44.4000015      -7.71102859E-05
   44.5200005      -7.89655387E-05
   44.6399994      -8.08455079E-05
   44.7599983      -8.27509357E-05
   44.8800011      -8.46825715E-05
   45.0000000      -8.66412011E-05
   45.1199989      -8.86276248E-05
   45.2400017      -9.06426503E-05
   45.3600006      -9.26870853E-05
   45.4799995      -9.47617227E-05
   45.5999985      -9.68673048E-05
   45.7200012      -9.90045664E-05
   45.8400002      -1.01174206E-04
   45.9599991      -1.03376922E-04
   46.0800018      -1.05613399E-04
   46.2000008      -1.07884363E-04
   46.3199997      -1.10190515E-04
   46.4399986      -1.12532602E-04
   46.5600014      -1.14911323E-04
   46.6800003      -1.17327378E-04
   46.7999992      -1.19781427E-04
   46.9199982      -1.22274112E-04
   47.0400009      -1.24806029E-04
   47.1599998      -1.27377745E-04
   47.2799988      -1.29989770E-04
   47.4000015      -1.32642599E-04
   47.5200005      -1.35336712E-04
   47.6399994      -1.38072515E-04
   47.7599983      -1.40850389E-04
   47.8800011      -1.43670695E-04
   48.0000000      -1.46533712E-04
   48.1199989      -1.49439715E-04
   48.2400017      -1.52388951E-04
   48.3600006      -1.55381582E-04
   48.4799995      -1.58417795E-04
   48.5999985      -1.61497621E-04
   48.7200012      -1.64621102E-04
   48.8400002      -1.67788137E-04
   48.9599991      -1.70998595E-04
   49.0800018      -1.74252244E-04
   49.2000008      -1.77548776E-04
   49.3199997      -1.80887844E-04
   49.4399986      -1.84268996E-04
   49.5600014      -1.87691738E-04
   49.6800003      -1.91155486E-04
   49.7999992      -1.94659617E-04
   49.9199982      -1.98203430E-04
   50.0400009      -2.01786112E-04
   50.1599998      -2.05406832E-04
   50.2799988      -2.09064645E-04
   50.4000015      -2.12758576E-04
   50.5200005      -2.16487577E-04
   50.6399994      -2.20250469E-04
   50.7599983      -2.24046031E-04
   50.8800011      -2.27872864E-04
   51.0000000      -2.31729515E-04
   51.1199989      -2.35614367E-04
   51.2400017      -2.39525703E-04
   51.3600006      -2.43461705E-04
   51.4799995      -2.47420452E-04
   51.5999985      -2.51399935E-04
   51.7200012      -2.55398074E-04
   51.8400002      -2.59412831E-04
   51.9599991      -2.63441965E-04
   52.0800018      -2.67483207E-04
   52.2000008      -2.71534314E-04
   52.3199997      -2.75592844E-04
   52.4399986      -2.79656233E-04
   52.5600014      -2.83721834E-04
   52.6800003      -2.87786912E-04
   52.7999992      -2.91848555E-04
   52.9199982      -2.95903796E-04
   53.0400009      -2.99949636E-04
   53.1599998      -3.03982961E-04
   53.2799988      -3.08000512E-04
   53.4000015      -3.11999174E-04
   53.5200005      -3.15975543E-04
   53.6399994      -3.19926243E-04
   53.7599983      -3.23847868E-04
   53.8800011      -3.27736896E-04
   54.0000000      -3.31589807E-04
   54.1199989      -3.35403020E-04
   54.2400017      -3.39173013E-04
   54.3600006      -3.42896063E-04
   54.4799995      -3.46568442E-04
   54.5999985      -3.50186281E-04
   54.7200012      -3.53745738E-04
   54.8400002      -3.57242883E-04
   54.9599991      -3.60673730E-04
   55.0800018      -3.64034320E-04
   55.2000008      -3.67320667E-04
   55.3199997      -3.70528898E-04
   55.4399986      -3.73654999E-04
   55.5600014      -3.76695010E-04
   55.6800003      -3.79644887E-04
   55.7999992      -3.82500584E-04
   55.9199982      -3.85258056E-04
   56.0400009      -3.87913315E-04
   56.1599998      -3.90462403E-04
   56.2799988      -3.92901362E-04
   56.4000015      -3.95226467E-04
   56.5200005      -3.97433876E-04
   56.6399994      -3.99519893E-04
   56.7599983      -4.01480822E-04
   56.8800011      -4.03312966E-04
   57.0000000      -4.05012688E-04
   57.1199989      -4.06576408E-04
   57.2400017      -4.08000546E-04
   57.3600006      -4.09281580E-04
   57.4799995      -4.10416134E-04
   57.5999985      -4.11400950E-04
   57.7200012      -4.12232825E-04
   57.8400002      -4.12908790E-04
   57.9599991      -4.13425936E-04
   58.0800018      -4.13781614E-04
   58.2000008      -4.13973292E-04
   58.3199997      -4.13998583E-04
   58.4399986      -4.13855189E-04
   58.5600014      -4.13540984E-04
   58.6800003      -4.13053785E-04
   58.7999992      -4.12391586E-04
   58.9199982      -4.11552435E-04
   59.0400009      -4.10534441E-04
   59.1599998      -4.09336091E-04
   59.2799988      -4.07955900E-04
   59.4000015      -4.06392792E-04
   59.5200005      -4.04645805E-04
   59.6399994      -4.02714330E-04
   59.7599983      -4.00597928E-04
   59.8800011      -3.98296310E-04
   60.0000000      -3.95809446E-04
   60.1199989      -3.93137336E-04
   60.2400017      -3.90280184E-04
   60.3600006      -3.87238368E-04
   60.4799995      -3.84012470E-04
   60.5999985      -3.80603218E-04
   60.7200012      -3.77011602E-04
   60.8400002      -3.73238814E-04
   60.9599991      -3.69286310E-04
   61.0800018      -3.65155778E-04
   61.2000008      -3.60849110E-04
   61.3199997      -3.56368459E-04
   61.4399986      -3.51716270E-04
   61.5600014      -3.46894929E-04
   61.6800003      -3.41907289E-04
   61.7999992      -3.36756260E-04
   61.9199982      -3.31444986E-04
   62.0400009      -3.25976900E-04
   62.1599998      -3.20355583E-04
   62.2799988      -3.14584933E-04
   62.4000015      -3.08669027E-04
   62.5200005      -3.02612083E-04
   62.6399994      -2.96418584E-04
   62.7599983      -2.90093012E-04
   62.8800011      -2.83640053E-04
   63.0000000      -2.77064508E-04
   63.1199989      -2.70371354E-04
   63.2400017      -2.63565773E-04
   63.3600006      -2.56653031E-04
   63.4799995      -2.49638746E-04
   63.5999985      -2.42528680E-04
   63.7200012      -2.35328771E-04
   63.8400002      -2.28045086E-04
   63.9599991      -2.20683811E-04
   64.0800018      -2.13251187E-04
   64.1999969      -2.05753575E-04
   64.3199997      -1.98197318E-04
   64.4400024      -1.90588980E-04
   64.5599976      -1.82935182E-04
   64.6800003      -1.75242661E-04
   64.8000031      -1.67518287E-04
   64.9199982      -1.59768941E-04
   65.0400009      -1.52001565E-04
   65.1600037      -1.44223101E-04
   65.2799988      -1.36440431E-04
   65.4000015      -1.28660438E-04
   65.5199966      -1.20889992E-04
   65.6399994      -1.13135997E-04
   65.7600021      -1.05405350E-04
   65.8799973      -9.77049713E-05
   66.0000000      -9.00417581E-05
   66.1200027      -8.24225644E-05
   66.2399979      -7.48542225E-05
   66.3600006      -6.73434915E-05
   66.4800034      -5.98970582E-05
   66.5999985      -5.25215546E-05
   66.7200012      -4.52235145E-05
   66.8399963      -3.80093370E-05
   66.9599991      -3.08852468E-05
   67.0800018      -2.38572775E-05
   67.1999969      -1.69312825E-05
   67.3199997      -1.01129526E-05
   67.4400024      -3.40784322E-06
   67.5599976       3.17858553E-06
   67.6800003       9.64095670E-06
   67.8000031       1.59739975E-05
   67.9199982       2.21725750E-05
   68.0400009       2.82317505E-05
   68.1600037       3.41468367E-05
   68.2799988       3.99134224E-05
   68.4000015       4.55273876E-05
   68.5199966       5.09848687E-05
   68.6399994       5.62822352E-05
   68.7600021       6.14160454E-05
   68.8799973       6.63830360E-05
   69.0000000       7.11801476E-05
   69.1200027       7.58045280E-05
   69.2399979       8.02535797E-05
   69.3600006       8.45250106E-05
   69.4800034       8.86168345E-05
   69.5999985       9.25273780E-05
   69.7200012       9.62552731E-05
   69.8399963       9.97993920E-05
   69.9599991       1.03158840E-04
   70.0800018       1.06332918E-04
   70.1999969       1.09321118E-04
   70.3199997       1.12123140E-04
   70.4400024       1.14738934E-04
   70.5599976       1.17168711E-04
   70.6800003       1.19412980E-04
   70.8000031       1.21472549E-04
   70.9199982       1.23348495E-04
   71.0400009       1.25042192E-04
   71.1600037       1.26555242E-04
   71.2799988       1.27889463E-04
   71.4000015       1.29046908E-04
   71.5199966       1.30029875E-04
   71.6399994       1.30840839E-04
   71.7600021       1.31482535E-04
   71.8799973       1.31957873E-04
   72.0000000       1.32269983E-04
   72.1200027       1.32422181E-04
   72.2399979       1.32417917E-04
   72.3600006       1.32260815E-04
   72.4800034       1.31954643E-04
   72.5999985       1.31503315E-04
   72.7200012       1.30910907E-04