  -30.0000000       0.00000000    
  -29.8799992       0.00000000    
  -29.7600002       0.00000000    
  -29.6399994       0.00000000    
  -29.5200005       0.00000000    
  -29.3999996       0.00000000    
  -29.2800007       0.00000000    
  -29.1599998       0.00000000    
  -29.0400009       0.00000000    
  -28.9200001       0.00000000    
  -28.7999992      -2.24501700E-36
  -28.6800003      -4.50025299E-35
  -28.5599995      -1.01759228E-34
  -28.4400005       1.63340101E-33
  -28.3199997       1.44094640E-32
  -28.2000008       5.37624449E-32
  -28.0799999       6.54060573E-32
  -27.9599991      -4.18495173E-31
  -27.8400002      -3.20105732E-30
  -27.7199993      -1.29286473E-29
  -27.6000004      -3.72970206E-29
  -27.4799995      -7.87607245E-29
  -27.3600006      -1.02263955E-28
  -27.2399998       3.74536559E-29
  -27.1200008       6.91298254E-28
  -27.0000000       2.41220145E-27
  -26.8799992       5.56537055E-27
  -26.7600002       9.17695527E-27
  -26.6399994       8.94391004E-27
  -26.5200005      -4.64649127E-27
  -26.3999996      -4.54280528E-26
  -26.2800007      -1.23800465E-25
  -26.1599998      -2.28876134E-25
  -26.0400009      -3.02735282E-25
  -25.9200001      -2.19544230E-25
  -25.7999992       2.05456974E-25
  -25.6800003       1.14617161E-24
  -25.5599995       2.61486899E-24
  -25.4400005       4.24506603E-24
  -25.3199997       5.08083931E-24
  -25.2000008       3.51417260E-24
  -25.0799999      -2.43365423E-24
  -24.9599991      -1.42892844E-23
  -24.8400002      -3.16712034E-23
  -24.7199993      -5.03820942E-23
  -24.6000004      -6.07093469E-23
  -24.4799995      -4.72115928E-23
  -24.3600006       8.23460187E-24
  -24.2399998       1.18484384E-22
  -24.1200008       2.78027829E-22
  -24.0000000       4.47585996E-22
  -23.8799992       5.43629167E-22
  -23.7600002       4.44044427E-22
  -23.6399994       2.17105076E-23
  -23.5200005      -7.88785175E-22
  -23.3999996      -1.90170378E-21
  -23.2800007      -3.00104681E-21
  -23.1599998      -3.52590139E-21
  -23.0400009      -2.77916934E-21
  -22.9200001      -1.91267897E-22
  -22.7999992       4.29684018E-21
  -22.6800003       9.86145339E-21
  -22.5599995       1.46471957E-20
  -22.4400005       1.60634840E-20
  -22.3199997       1.16308775E-20
  -22.2000008       2.28646928E-22
  -22.0799999      -1.67180908E-20
  -21.9599991      -3.47836039E-20
  -21.8400002      -4.74061216E-20
  -21.7199993      -4.81692959E-20
  -21.6000004      -3.38036534E-20
  -21.4799995      -6.46939855E-21
  -21.3600006       2.62915367E-20
  -21.2399998       5.47499344E-20
  -21.1200008       7.24226418E-20
  -21.0000000       8.08929648E-20
  -20.8799992       9.02064886E-20
  -20.7600002       1.12217131E-19
  -20.6399994       1.47894633E-19
  -20.5200005       1.74501104E-19
  -20.3999996       1.42101422E-19
  -20.2800007      -1.19112409E-20
  -20.1599998      -3.28399699E-19
  -20.0400009      -7.81828109E-19
  -19.9200001      -1.24649377E-18
  -19.7999992      -1.49939452E-18
  -19.6800003      -1.27756484E-18
  -19.5599995      -3.86494713E-19
  -19.4400005       1.17196211E-18
  -19.3199997       3.10649375E-18
  -19.2000008       4.83580291E-18
  -19.0799999       5.61445739E-18
  -18.9599991       4.77128283E-18
  -18.8400002       1.99190944E-18
  -18.7199993      -2.45953677E-18
  -18.6000004      -7.68161938E-18
  -18.4799995      -1.22922935E-17
  -18.3600006      -1.47735185E-17
  -18.2399998      -1.38988644E-17
  -18.1200008      -9.10322852E-18
  -18.0000000      -6.80630316E-19
  -17.8799992       1.02237853E-17
  -17.7600002       2.17712299E-17
  -17.6399994       3.16359924E-17
  -17.5200005       3.72006316E-17
  -17.3999996       3.57889056E-17
  -17.2800007       2.50944959E-17
  -17.1599998       3.96888330E-18
  -17.0400009      -2.64401483E-17
  -16.9200001      -6.15366657E-17
  -16.7999992      -9.27895477E-17
  -16.6800003      -1.08708639E-16
  -16.5599995      -9.77707830E-17
  -16.4400005      -5.29933127E-17
  -16.3199997       2.31928622E-17
  -16.2000008       1.15945615E-16
  -16.0799999       1.99117554E-16
  -15.9600000       2.41618901E-16
  -15.8400002       2.18110084E-16
  -15.7200003       1.20714861E-16
  -15.6000004      -3.31318989E-17
  -15.4799995      -2.01306353E-16
  -15.3599997      -3.28118991E-16
  -15.2399998      -3.63705227E-16
  -15.1199999      -2.85108590E-16
  -15.0000000      -1.10139893E-16
  -14.8800001       1.03620035E-16
  -14.7600002       2.77163500E-16
  -14.6400003       3.40814082E-16
  -14.5200005       2.65809791E-16
  -14.3999996       8.25255002E-17
  -14.2799997      -1.25344200E-16
  -14.1599998      -2.52183043E-16
  -14.0400000      -2.17420176E-16
  -13.9200001      -9.03235072E-18
  -13.8000002       2.97316955E-16
  -13.6800003       5.56976944E-16
  -13.5600004       6.11403893E-16
  -13.4399996       3.61286869E-16
  -13.3199997      -1.72266411E-16
  -13.1999998      -8.28690925E-16
  -13.0799999      -1.34808099E-15
  -12.9600000      -1.46444966E-15
  -12.8400002      -1.02161830E-15
  -12.7200003      -6.56491298E-17
  -12.6000004       1.13076590E-15
  -12.4799995       2.13569638E-15
  -12.3599997       2.50621273E-15
  -12.2399998       1.97032378E-15
  -12.1199999       5.72622648E-16
  -12.0000000      -1.28387981E-15
  -11.8800001      -2.93608365E-15
  -11.7600002      -3.68374417E-15
  -11.6400003      -3.06701673E-15
  -11.5200005      -1.09391912E-15
  -11.3999996       1.68379837E-15
  -11.2799997       4.30176863E-15
  -11.1599998       5.69991764E-15
  -11.0400000       5.12434096E-15
  -10.9200001       2.46423081E-15
  -10.8000002      -1.61935505E-15
  -10.6800003      -5.84862147E-15
  -10.5600004      -8.73670101E-15
  -10.4399996      -9.11111498E-15
  -10.3199997      -6.55832285E-15
  -10.1999998      -1.61351899E-15
  -10.0799999       4.38609076E-15
  -9.96000004       9.73344957E-15
  -9.84000015       1.29030833E-14
  -9.72000027       1.30104820E-14
  -9.60000038       1.00153625E-14
  -9.47999954       4.62350351E-15
  -9.35999966      -2.02417814E-15
  -9.23999977      -8.70357609E-15
  -9.11999989      -1.43387228E-14
  -9.00000000      -1.80482765E-14
  -8.88000011      -1.90745365E-14
  -8.76000023      -1.67508541E-14
  -8.64000034      -1.06504635E-14
  -8.52000046      -9.39199661E-16
  -8.39999962       1.12159156E-14
  -8.27999973       2.34544101E-14
  -8.15999985       3.25081352E-14
  -8.03999996       3.50542010E-14
  -7.92000008       2.89457823E-14
  -7.80000019       1.43726770E-14
  -7.67999983      -5.59658512E-15
  -7.55999994      -2.54969944E-14
  -7.44000006      -3.90155945E-14
  -7.32000017      -4.11929368E-14
  -7.19999981      -3.05074772E-14
  -7.07999992      -9.98635074E-15
  -6.96000004       1.32592547E-14
  -6.84000015       3.01431243E-14
  -6.71999979       3.28002023E-14
  -6.59999990       1.78255305E-14
  -6.48000002      -1.16412439E-14
  -6.36000013      -4.59194348E-14
  -6.23999977      -7.11932615E-14
  -6.11999989      -7.38410052E-14
  -6.00000000      -4.54858726E-14
  -5.88000011       1.28492128E-14
  -5.76000023       8.90499358E-14
  -5.63999987       1.61691285E-13
  -5.51999998       2.05333959E-13
  -5.40000010       1.98233804E-13
  -5.28000021       1.30361433E-13
  -5.15999985       9.12123025E-15
  -5.03999996      -1.39587249E-13
  -4.92000008      -2.76225034E-13
  -4.80000019      -3.57898769E-13
  -4.67999983      -3.51651976E-13
  -4.55999994      -2.46858767E-13
  -4.44000006      -6.24060062E-14
  -4.32000017       1.54643090E-13
  -4.19999981       3.39882988E-13
  -4.07999992       4.29832222E-13
  -3.96000004       3.82759173E-13
  -3.83999991       1.95634592E-13
  -3.72000003      -8.88360633E-14
  -3.59999990      -3.88710900E-13
  -3.48000002      -6.02562054E-13
  -3.35999990      -6.37991396E-13
  -3.24000001      -4.41234234E-13
  -3.11999989      -1.90948111E-14
  -3.00000000       5.54021130E-13
  -2.88000011       1.14740184E-12
  -2.75999999       1.60199848E-12
  -2.64000010       1.76853551E-12
  -2.51999998       1.54601646E-12
  -2.40000010       9.10364123E-13
  -2.27999997      -7.46143598E-14
  -2.16000009      -1.26695041E-12
  -2.03999996      -2.47417321E-12
  -1.91999996      -3.49117436E-12
  -1.79999995      -4.13796645E-12
  -1.67999995      -4.28773293E-12
  -1.55999994      -3.87942543E-12
  -1.44000006      -2.91485868E-12
  -1.32000005      -1.44575172E-12
  -1.20000005       4.40651069E-13
  -1.08000004       2.62922388E-12
 -0.959999979       4.97386464E-12
 -0.839999974       7.28598952E-12
 -0.720000029       9.32287060E-12
 -0.600000024       1.07870362E-11
 -0.479999989       1.13462200E-11
 -0.360000014       1.06771432E-11
 -0.239999995       8.52769851E-12
 -0.119999997       4.78408198E-12
  -1.11022302E-15  -4.74655905E-13
  0.119999997      -6.95040683E-12
  0.239999995      -1.41366337E-11
  0.360000014      -2.13637875E-11
  0.479999989      -2.78674479E-11
  0.600000024      -3.28611305E-11
  0.720000029      -3.55959151E-11
  0.839999974      -3.53951105E-11
  0.959999979      -3.16619855E-11
   1.08000004      -2.38683188E-11
   1.20000005      -1.15376484E-11
   1.32000005       5.76234633E-12
   1.44000006       2.84093495E-11
   1.55999994       5.66977507E-11
   1.67999995       9.08012832E-11
   1.79999995       1.30742653E-10
   1.91999996       1.76386752E-10
   2.03999996       2.27468697E-10
   2.16000009       2.83657403E-10
   2.27999997       3.44644618E-10
   2.40000010       4.10238787E-10
   2.51999998       4.80439799E-10
   2.64000010       5.55472668E-10
   2.75999999       6.35769992E-10
   2.88000011       7.21904592E-10
   3.00000000       8.14491530E-10
   3.11999989       9.14086640E-10
   3.24000001       1.02111264E-09
   3.35999990       1.13583620E-09
   3.48000002       1.25840616E-09
   3.59999990       1.38894318E-09
   3.72000003       1.52765645E-09
   3.83999991       1.67495173E-09
   3.96000004       1.83149829E-09
   4.07999992       1.99823291E-09
   4.19999981       2.17630092E-09
   4.32000017       2.36695219E-09
   4.44000006       2.57143240E-09
   4.55999994       2.79090329E-09
   4.67999983       3.02642800E-09
   4.80000019       3.27902727E-09
   4.92000008       3.54979091E-09
   5.03999996       3.84000653E-09
   5.15999985       4.15125578E-09
   5.28000021       4.48543735E-09
   5.40000010       4.84470419E-09
   5.51999998       5.23132249E-09
   5.63999987       5.64750247E-09
   5.76000023       6.09526163E-09
   5.88000011       6.57636789E-09
   6.00000000       7.09239112E-09
   6.11999989       7.64485808E-09
   6.23999977       8.23544877E-09
   6.36000013       8.86617624E-09
   6.48000002       9.53948476E-09
   6.59999990       1.02582369E-08
   6.71999979       1.10255867E-08
   6.84000015       1.18448158E-08
   6.96000004       1.27191804E-08
   7.07999992       1.36518548E-08
   7.19999981       1.46460000E-08
   7.32000017       1.57049307E-08
   7.44000006       1.68323595E-08
   7.55999994       1.80325976E-08
   7.67999983       1.93106846E-08
   7.80000019       2.06723882E-08
   7.92000008       2.21241159E-08
   8.03999996       2.36727882E-08
   8.15999985       2.53257362E-08
   8.27999973       2.70906835E-08
   8.39999962       2.89758333E-08
   8.52000046       3.09900123E-08
   8.64000034       3.31427721E-08
   8.76000023       3.54443621E-08
   8.88000011       3.79055365E-08
   9.00000000       4.05371239E-08
   9.11999989       4.33494840E-08
   9.23999977       4.63519925E-08
   9.35999966       4.95526571E-08
   9.47999954       5.29581001E-08
   9.60000038       5.65738958E-08
   9.72000027       6.04053128E-08
   9.84000015       6.44583409E-08
   9.96000004       6.87406541E-08
   10.0799999       7.32624414E-08
   10.1999998       7.80368055E-08
   10.3199997       8.30796552E-08
   10.4399996       8.84090454E-08
   10.5600004       9.40443101E-08
   10.6800003       1.00005096E-07
   10.8000002       1.06310559E-07
   10.9200001       1.12979031E-07
   11.0400000       1.20028233E-07
   11.1599998       1.27475914E-07
   11.2799997       1.35340741E-07
   11.3999996       1.43643021E-07
   11.5200005       1.52405434E-07
   11.6400003       1.61652892E-07
   11.7600002       1.71412054E-07
   11.8800001       1.81710377E-07
   12.0000000       1.92574959E-07
   12.1199999       2.04031593E-07
   12.2399998       2.16104311E-07
   12.3599997       2.28815452E-07
   12.4799995       2.42186474E-07
   12.6000004       2.56239360E-07
   12.7200003       2.70998015E-07
   12.8400002       2.86489751E-07
   12.9600000       3.02745889E-07
   13.0799999       3.19801956E-07
   13.1999998       3.37696946E-07
   13.3199997       3.56471759E-07
   13.4399996       3.76167833E-07
   13.5600004       3.96825328E-07
   13.6800003       4.18482387E-07
   13.8000002       4.41175132E-07
   13.9200001       4.64938609E-07
   14.0400000       4.89808372E-07
   14.1599998       5.15823046E-07
   14.2799997       5.43025749E-07
   14.3999996       5.71465193E-07
   14.5200005       6.01195325E-07
   14.6400003       6.32273611E-07
   14.7600002       6.64758431E-07
   14.8800001       6.98706117E-07
   15.0000000       7.34168680E-07
   15.1199999       7.71192504E-07
   15.2399998       8.09819198E-07
   15.3599997       8.50087247E-07
   15.4799995       8.92035928E-07
   15.6000004       9.35707988E-07
   15.7200003       9.81152880E-07
   15.8400002       1.02842694E-06
   15.9600000       1.07759286E-06
   16.0799999       1.12871658E-06
   16.2000008       1.18186347E-06
   16.3199997       1.23709572E-06
   16.4400005       1.29447085E-06
   16.5599995       1.35404139E-06
   16.6800003       1.41585758E-06
   16.7999992       1.47997105E-06
   16.9200001       1.54643851E-06
   17.0400009       1.61532409E-06
   17.1599998       1.68669987E-06
   17.2800007       1.76064316E-06
   17.3999996       1.83723262E-06
   17.5200005       1.91654271E-06
   17.6399994       1.99863916E-06
   17.7600002       2.08357665E-06
   17.8799992       2.17139905E-06
   18.0000000       2.26214229E-06
   18.1200008       2.35584071E-06
   18.2399998       2.45253113E-06
   18.3600006       2.55225746E-06
   18.4799995       2.65507310E-06
   18.6000004       2.76103970E-06
   18.7199993       2.87022317E-06
   18.8400002       2.98268969E-06
   18.9599991       3.09850066E-06
   19.0799999       3.21771017E-06
   19.2000008       3.34036235E-06
   19.3199997       3.46649426E-06
   19.4400005       3.59613819E-06
   19.5599995       3.72932345E-06
   19.6800003       3.86608099E-06
   19.7999992       4.00644194E-06
   19.9200001       4.15044042E-06
   20.0400009       4.29810825E-06
   20.1599998       4.44947545E-06
   20.2800007       4.60456477E-06
   20.3999996       4.76339210E-06
   20.5200005       4.92596428E-06
   20.6399994       5.09228130E-06
   20.7600002       5.26233498E-06
   20.8799992       5.43611213E-06
   21.0000000       5.61359502E-06
   21.1200008       5.79476500E-06
   21.2399998       5.97960297E-06
   21.3600006       6.16808620E-06
   21.4799995       6.36019240E-06
   21.6000004       6.55589338E-06
   21.7199993       6.75515821E-06
   21.8400002       6.95794597E-06
   21.9599991       7.16420527E-06
   22.0799999       7.37387381E-06
   22.2000008       7.58687702E-06
   22.3199997       7.80312803E-06
   22.4400005       8.02252998E-06
   22.5599995       8.24498056E-06
   22.6800003       8.47037245E-06
   22.7999992       8.69860014E-06
   22.9200001       8.92955268E-06
   23.0400009       9.16312274E-06
   23.1599998       9.39919482E-06
   23.2800007       9.63764796E-06
   23.3999996       9.87834756E-06
   23.5200005       1.01211472E-05
   23.6399994       1.03658840E-05
   23.7600002       1.06123825E-05
   23.8799992       1.08604509E-05
   24.0000000       1.11098934E-05
   24.1200008       1.13605065E-05
   24.2399998       1.16120791E-05
   24.3600006       1.18643966E-05
   24.4799995       1.21172361E-05
   24.6000004       1.23703658E-05
   24.7199993       1.26235418E-05
   24.8400002       1.28765087E-05
   24.9599991       1.31289917E-05
   25.0799999       1.33807089E-05
   25.2000008       1.36313583E-05
   25.3199997       1.38806290E-05
   25.4400005       1.41281962E-05
   25.5599995       1.43737288E-05
   25.6800003       1.46168823E-05
   25.7999992       1.48573035E-05
   25.9200001       1.50946362E-05
   26.0400009       1.53285127E-05
   26.1599998       1.55585622E-05
   26.2800007       1.57844115E-05
   26.3999996       1.60056788E-05
   26.5200005       1.62219694E-05
   26.6399994       1.64328831E-05
   26.7600002       1.66379887E-05
   26.8799992       1.68368424E-05
   27.0000000       1.70289841E-05
   27.1200008       1.72139335E-05
   27.2399998       1.73912049E-05
   27.3600006       1.75603036E-05
   27.4799995       1.77207385E-05
   27.6000004       1.78720111E-05
   27.7199993       1.80136249E-05
   27.8400002       1.81450778E-05
   27.9599991       1.82658459E-05
   28.0799999       1.83753928E-05
   28.2000008       1.84731598E-05
   28.3199997       1.85585704E-05
   28.4400005       1.86310317E-05
   28.5599995       1.86899415E-05
   28.6800003       1.87346977E-05
   28.7999992       1.87646947E-05
   28.9200001       1.87793303E-05
   29.0400009       1.87780079E-05
   29.1599998       1.87601308E-05
   29.2800007       1.87250953E-05
   29.3999996       1.86722918E-05
   29.5200005       1.86011002E-05
   29.6399994       1.85108856E-05
   29.7600002       1.84010023E-05
   29.8799992       1.82707990E-05
   30.0000000       1.81196174E-05
   30.1200008       1.79467952E-05
   30.2399998       1.77516667E-05
   30.3600006       1.75335699E-05
   30.4799995       1.72918481E-05
   30.6000004       1.70258336E-05
   30.7199993       1.67348553E-05
   30.8400002       1.64182275E-05
   30.9599991       1.60752479E-05
   31.0799999       1.57052036E-05
   31.2000008       1.53073779E-05
   31.3199997       1.48810477E-05
   31.4400005       1.44255037E-05
   31.5599995       1.39400372E-05
   31.6800003       1.34239517E-05
   31.7999992       1.28765478E-05
   31.9200001       1.22971251E-05
   32.0400009       1.16849715E-05
   32.1599998       1.10393676E-05
   32.2799988       1.03595858E-05
   32.4000015       9.64489573E-06
   32.5200005       8.89457442E-06
   32.6399994       8.10790971E-06
   32.7599983       7.28420400E-06
   32.8800011       6.42277200E-06
   33.0000000       5.52293795E-06
   33.1199989       4.58403292E-06
   33.2400017       3.60538911E-06
   33.3600006       2.58634213E-06
   33.4799995       1.52622977E-06
   33.5999985       4.24392198E-07
   33.7200012      -7.19826289E-07
   33.8400002      -1.90707647E-06
   33.9599991      -3.13800501E-06
   34.0800018      -4.41325392E-06
   34.2000008      -5.73345824E-06
   34.3199997      -7.09924188E-06
   34.4399986      -8.51121240E-06
   34.5600014      -9.96995459E-06
   34.6800003      -1.14760223E-05
   34.7999992      -1.30299413E-05
   34.9199982      -1.46322100E-05
   35.0400009      -1.62833076E-05
   35.1599998      -1.79837007E-05
   35.2799988      -1.97338541E-05
   35.4000015      -2.15342279E-05
   35.5200005      -2.33852879E-05
   35.6399994      -2.52874834E-05
   35.7599983      -2.72412599E-05
   35.8800011      -2.92470413E-05
   36.0000000      -3.13052187E-05
   36.1199989      -3.34161632E-05
   36.2400017      -3.55802003E-05
   36.3600006      -3.77976321E-05
   36.4799995      -4.00687204E-05
   36.5999985      -4.23936945E-05
   36.7200012      -4.47727543E-05
   36.8400002      -4.72060601E-05
   36.9599991      -4.96937537E-05
   37.0800018      -5.22359551E-05
   37.2000008      -5.48327553E-05
   37.3199997      -5.74842306E-05
   37.4399986      -6.01904394E-05
   37.5600014      -6.29514034E-05
   37.6800003      -6.57671044E-05
   37.7999992      -6.86374842E-05
   37.9199982      -7.15624410E-05
   38.0400009      -7.45418001E-05
   38.1599998      -7.75753288E-05
   38.2799988      -8.06627577E-05
   38.4000015      -8.38037668E-05
   38.5200005      -8.69979776E-05
   38.6399994      -9.02449756E-05
   38.7599983      -9.35443168E-05
   38.8800011      -9.68955283E-05
   39.0000000      -1.00298072E-04
   39.1199989      -1.03751423E-04
   39.2400017      -1.07254986E-04
   39.3600006      -1.10808156E-04
   39.4799995      -1.14410228E-04
   39.5999985      -1.18060489E-04
   39.7200012      -1.21758116E-04
   39.8400002      -1.25502207E-04
   39.9599991      -1.29291788E-04
   40.0800018      -1.33125810E-04
   40.2000008      -1.37003182E-04
   40.3199997      -1.40922770E-04
   40.4399986      -1.44883321E-04
   40.5600014      -1.48883613E-04
   40.6800003      -1.52922352E-04
   40.7999992      -1.56998198E-04
   40.9199982      -1.61109769E-04
   41.0400009      -1.65255566E-04
   41.1599998      -1.69434075E-04
   41.2799988      -1.73643683E-04
   41.4000015      -1.77882728E-04
   41.5200005      -1.82149452E-04
   41.6399994      -1.86442048E-04
   41.7599983      -1.90758612E-04
   41.8800011      -1.95097164E-04
   42.0000000      -1.99455695E-04
   42.1199989      -2.03832067E-04
   42.2400017      -2.08224097E-04
   42.3600006      -2.12629559E-04
   42.4799995      -2.17046123E-04
   42.5999985      -2.21471433E-04
   42.7200012      -2.25903044E-04
   42.8400002      -2.30338439E-04
   42.9599991      -2.34775100E-04
   43.0800018      -2.39210363E-04
   43.2000008      -2.43641596E-04
   43.3199997      -2.48066033E-04
   43.4399986      -2.52480881E-04
   43.5600014      -2.56883330E-04
   43.6800003      -2.61270470E-04
   43.7999992      -2.65639217E-04
   43.9199982      -2.69986573E-04
   44.0400009      -2.74309394E-04
   44.1599998      -2.78604421E-04
   44.2799988      -2.82868365E-04
   44.4000015      -2.87097937E-04
   44.5200005      -2.91289703E-04
   44.6399994      -2.95440230E-04
   44.7599983      -2.99546082E-04
   44.8800011      -3.03603767E-04
   45.0000000      -3.07609822E-04
   45.1199989      -3.11560696E-04
   45.2400017      -3.15452722E-04
   45.3600006      -3.19282204E-04
   45.4799995      -3.23045417E-04
   45.5999985      -3.26738547E-04
   45.7200012      -3.30357754E-04
   45.8400002      -3.33899166E-04
   45.9599991      -3.37359001E-04
   46.0800018      -3.40733270E-04
   46.2000008      -3.44018074E-04
   46.3199997      -3.47209425E-04
   46.4399986      -3.50303308E-04
   46.5600014      -3.53295647E-04
   46.6800003      -3.56182456E-04
   46.7999992      -3.58959689E-04
   46.9199982      -3.61623301E-04
   47.0400009      -3.64169362E-04
   47.1599998      -3.66593857E-04
   47.2799988      -3.68892826E-04
   47.4000015      -3.71062284E-04
   47.5200005      -3.73098184E-04
   47.6399994      -3.74996540E-04
   47.7599983      -3.76753305E-04
   47.8800011      -3.78364552E-04
   48.0000000      -3.79826262E-04
   48.1199989      -3.81134509E-04
   48.2400017      -3.82285478E-04
   48.3600006      -3.83275241E-04
   48.4799995      -3.84100073E-04
   48.5999985      -3.84756160E-04
   48.7200012      -3.85239808E-04
   48.8400002      -3.85547406E-04
   48.9599991      -3.85675288E-04
   49.0800018      -3.85620020E-04
   49.2000008      -3.85378109E-04
   49.3199997      -3.84946208E-04
   49.4399986      -3.84320971E-04
   49.5600014      -3.83499224E-04
   49.6800003      -3.82477680E-04
   49.7999992      -3.81253340E-04
   49.9199982      -3.79823206E-04
   50.0400009      -3.78184312E-04
   50.1599998      -3.76333948E-04
   50.2799988      -3.74269526E-04
   50.4000015      -3.71988601E-04
   50.5200005      -3.69488698E-04
   50.6399994      -3.66767636E-04
   50.7599983      -3.63823230E-04
   50.8800011      -3.60653416E-04
   51.0000000      -3.57256242E-04
   51.1199989      -3.53629846E-04
   51.2400017      -3.49772628E-04
   51.3600006      -3.45683104E-04
   51.4799995      -3.41359933E-04
   51.5999985      -3.36802041E-04
   51.7200012      -3.32008523E-04
   51.8400002      -3.26978596E-04
   51.9599991      -3.21711792E-04
   52.0800018      -3.16207646E-04
   52.2000008      -3.10465955E-04
   52.3199997      -3.04486719E-04
   52.4399986      -2.98270112E-04
   52.5600014      -2.91816454E-04
   52.6800003      -2.85126327E-04
   52.7999992      -2.78200430E-04
   52.9199982      -2.71039607E-04
   53.0400009      -2.63644935E-04
   53.1599998      -2.56017782E-04
   53.2799988      -2.48159631E-04
   53.4000015      -2.40072288E-04
   53.5200005      -2.31757716E-04
   53.6399994      -2.23218245E-04
   53.7599983      -2.14456464E-04
   53.8800011      -2.05475124E-04
   54.0000000      -1.96277237E-04
   54.1199989      -1.86865960E-04
   54.2400017      -1.77244685E-04
   54.3600006      -1.67417005E-04
   54.4799995      -1.57386719E-04
   54.5999985      -1.47157902E-04
   54.7200012      -1.36734845E-04
   54.8400002      -1.26122148E-04
   54.9599991      -1.15324641E-04
   55.0800018      -1.04347433E-04
   55.2000008      -9.31958639E-05
   55.3199997      -8.18754997E-05
   55.4399986      -7.03921396E-05
   55.5600014      -5.87517643E-05
   55.6800003      -4.69606275E-05
   55.7999992      -3.50251867E-05
   55.9199982      -2.29521320E-05
   56.0400009      -1.07483484E-05
   56.1599998       1.57907868E-06
   56.2799988       1.40228631E-05
   56.4000015       2.65755189E-05
   56.5200005       3.92293332E-05
   56.6399994       5.19763707E-05
   56.7599983       6.48084533E-05
   56.8800011       7.77171736E-05
   57.0000000       9.06939385E-05
   57.1199989       1.03729966E-04
   57.2400017       1.16816336E-04
   57.3600006       1.29944034E-04
   57.4799995       1.43103927E-04
   57.5999985       1.56286798E-04
   57.7200012       1.69483275E-04
   57.8400002       1.82683798E-04
   57.9599991       1.95878660E-04
   58.0800018       2.09057980E-04
   58.2000008       2.22211704E-04
   58.3199997       2.35329688E-04
   58.4399986       2.48401746E-04
   58.5600014       2.61417648E-04
   58.6800003       2.74367107E-04
   58.7999992       2.87239818E-04
   58.9199982       3.00025451E-04
   59.0400009       3.12713644E-04
   59.1599998       3.25294124E-04
   59.2799988       3.37756414E-04
   59.4000015       3.50090268E-04
   59.5200005       3.62285326E-04
   59.6399994       3.74331372E-04
   59.7599983       3.86218133E-04
   59.8800011       3.97935422E-04
   60.0000000       4.09473054E-04
   60.1199989       4.20820812E-04
   60.2400017       4.31968685E-04
   60.3600006       4.42906690E-04
   60.4799995       4.53625078E-04
   60.5999985       4.64114244E-04
   60.7200012       4.74364730E-04
   60.8400002       4.84367425E-04
   60.9599991       4.94113250E-04
   61.0800018       5.03593532E-04
   61.2000008       5.12799597E-04
   61.3199997       5.21723239E-04
   61.4399986       5.30356134E-04
   61.5600014       5.38690481E-04
   61.6800003       5.46718482E-04
   61.7999992       5.54432743E-04
   61.9199982       5.61826164E-04
   62.0400009       5.68891817E-04
   62.1599998       5.75623300E-04
   62.2799988       5.82014269E-04
   62.4000015       5.88058960E-04
   62.5200005       5.93751902E-04
   62.6399994       5.99087914E-04
   62.7599983       6.04062399E-04
   62.8800011       6.08670933E-04
   63.0000000       6.12909615E-04
   63.1199989       6.16774836E-04
   63.2400017       6.20263338E-04
   63.3600006       6.23372151E-04
   63.4799995       6.26098947E-04
   63.5999985       6.28441630E-04
   63.7200012       6.30398747E-04
   63.8400002       6.31969189E-04
   63.9599991       6.33152376E-04
   64.0800018       6.33948075E-04
   64.1999969       6.34356693E-04
   64.3199997       6.34378812E-04
   64.4400024       6.34015596E-04
   64.5599976       6.33268734E-04
   64.6800003       6.32140087E-04
   64.8000031       6.30632159E-04
   64.9199982       6.28747919E-04
   65.0400009       6.26490684E-04
   65.1600037       6.23864180E-04
   65.2799988       6.20872597E-04
   65.4000015       6.17520709E-04
   65.5199966       6.13813580E-04
   65.6399994       6.09756797E-04
   65.7600021       6.05356414E-04
   65.8799973       6.00618776E-04
   66.0000000       5.95550518E-04
   66.1200027       5.90158859E-04
   66.2399979       5.84451249E-04
   66.3600006       5.78435371E-04
   66.4800034       5.72119374E-04
   66.5999985       5.65511757E-04
   66.7200012       5.58621541E-04
   66.8399963       5.51458041E-04
   66.9599991       5.44030860E-04
   67.0800018       5.36349951E-04
   67.1999969       5.28425444E-04
   67.3199997       5.20267815E-04
   67.4400024       5.11887716E-04
   67.5599976       5.03295916E-04
   67.6800003       4.94503533E-04
   67.8000031       4.85521887E-04
   67.9199982       4.76362475E-04
   68.0400009       4.67037025E-04
   68.1600037       4.57557326E-04
   68.2799988       4.47935308E-04
   68.4000015       4.38183022E-04
   68.5199966       4.28312429E-04
   68.6399994       4.18335636E-04
   68.7600021       4.08264896E-04
   68.8799973       3.98112403E-04
   69.0000000       3.87890526E-04
   69.1200027       3.77611606E-04
   69.2399979       3.67288099E-04
   69.3600006       3.56932229E-04
   69.4800034       3.46556277E-04
   69.5999985       3.36172234E-04
   69.7200012       3.25792033E-04
   69.8399963       3.15427460E-04
   69.9599991       3.05090245E-04
   70.0800018       2.94791913E-04
   70.1999969       2.84543901E-04
   70.3199997       2.74357502E-04
   70.4400024       2.64243659E-04
   70.5599976       2.54213141E-04
   70.6800003       2.44276394E-04
   70.8000031       2.34443563E-04
   70.9199982       2.24724587E-04
   71.0400009       2.15129097E-04
   71.1600037       2.05666554E-04
   71.2799988       1.96346082E-04
   71.4000015       1.87176513E-04
   71.5199966       1.78166272E-04
   71.6399994       1.69323437E-04
   71.7600021       1.60655734E-04
   71.8799973       1.52170454E-04
   72.0000000       1.43874655E-04
   72.1200027       1.35774972E-04
   72.2399979       1.27877778E-04
   72.3600006       1.20188924E-04
   72.4800034       1.12713889E-04
   72.5999985       1.05457635E-04
   72.7200012       9.84246290E-05