  -30.0000000       0.00000000    
  -29.8799992       0.00000000    
  -29.7600002       0.00000000    
  -29.6399994       0.00000000    
  -29.5200005       0.00000000    
  -29.3999996       0.00000000    
  -29.2800007       0.00000000    
  -29.1599998       0.00000000    
  -29.0400009       0.00000000    
  -28.9200001       0.00000000    
  -28.7999992      -1.04596693E-36
  -28.6800003       5.51865056E-37
  -28.5599995       1.22494214E-34
  -28.4400005       9.67045958E-34
  -28.3199997       2.98089829E-33
  -28.2000008      -2.90306734E-33
  -28.0799999      -7.30500502E-32
  -27.9599991      -4.02072012E-31
  -27.8400002      -1.46848632E-30
  -27.7199993      -4.18677685E-30
  -27.6000004      -9.95940504E-30
  -27.4799995      -2.03206779E-29
  -27.3600006      -3.49488667E-29
  -27.2399998      -4.43198369E-29
  -27.1200008      -9.37838884E-30
  -27.0000000       1.80584629E-28
  -26.8799992       7.68391111E-28
  -26.7600002       2.16253833E-27
  -26.6399994       4.81723266E-27
  -26.5200005       8.73224341E-27
  -26.3999996       1.23133992E-26
  -26.2800007       1.05390161E-26
  -26.1599998      -6.97192803E-27
  -26.0400009      -5.62003614E-26
  -25.9200001      -1.54023415E-25
  -25.7999992      -3.04488846E-25
  -25.6800003      -4.73424864E-25
  -25.5599995      -5.54402570E-25
  -25.4400005      -3.40270616E-25
  -25.3199997       4.69835990E-25
  -25.2000008       2.18368393E-24
  -25.0799999       4.90430604E-24
  -24.9599991       8.18073844E-24
  -24.8400002       1.05930483E-23
  -24.7199993       9.48480756E-24
  -24.6000004       1.21612730E-24
  -24.4799995      -1.76146945E-23
  -24.3600006      -4.77085847E-23
  -24.2399998      -8.36766598E-23
  -24.1200008      -1.11046839E-22
  -24.0000000      -1.06095544E-22
  -23.8799992      -4.13960661E-23
  -23.7600002       1.01207604E-22
  -23.6399994       3.12019403E-22
  -23.5200005       5.36552845E-22
  -23.3999996       6.72542872E-22
  -23.2800007       5.93892961E-22
  -23.1599998       2.06674943E-22
  -23.0400009      -4.75461387E-22
  -22.9200001      -1.27200920E-21
  -22.7999992      -1.84375368E-21
  -22.6800003      -1.81151342E-21
  -22.5599995      -9.83827537E-22
  -22.4400005       3.86126183E-22
  -22.3199997       1.47619902E-21
  -22.2000008       1.09718642E-21
  -22.0799999      -1.66418521E-21
  -21.9599991      -6.46586890E-21
  -21.8400002      -1.08167573E-20
  -21.7199993      -9.96606993E-21
  -21.6000004       1.70694576E-21
  -21.4799995       2.75220470E-20
  -21.3600006       6.42050548E-20
  -21.2399998       9.83362652E-20
  -21.1200008       1.06302583E-19
  -21.0000000       6.03488357E-20
  -20.8799992      -5.85107693E-20
  -20.7600002      -2.43441943E-19
  -20.6399994      -4.47434660E-19
  -20.5200005      -5.81232675E-19
  -20.3999996      -5.32179830E-19
  -20.2800007      -2.06387586E-19
  -20.1599998       4.14297494E-19
  -20.0400009       1.22121709E-18
  -19.9200001       1.96196136E-18
  -19.7999992       2.28260821E-18
  -19.6800003       1.83695369E-18
  -19.5599995       4.41941301E-19
  -19.4400005      -1.77193626E-18
  -19.3199997      -4.28454825E-18
  -19.2000008      -6.24605528E-18
  -19.0799999      -6.69607876E-18
  -18.9599991      -4.90382859E-18
  -18.8400002      -7.27586774E-19
  -18.7199993       5.14530577E-18
  -18.6000004       1.12050266E-17
  -18.4799995       1.54326194E-17
  -18.3600006       1.58753578E-17
  -18.2399998       1.13328393E-17
  -18.1200008       1.93628568E-18
  -18.0000000      -1.05923406E-17
  -17.8799992      -2.31371450E-17
  -17.7600002      -3.18501924E-17
  -17.6399994      -3.31538622E-17
  -17.5200005      -2.48570520E-17
  -17.3999996      -7.10906812E-18
  -17.2800007       1.70837860E-17
  -17.1599998       4.20110673E-17
  -17.0400009       6.02285689E-17
  -16.9200001       6.43480342E-17
  -16.7999992       4.94160014E-17
  -16.6800003       1.53416163E-17
  -16.5599995      -3.14698316E-17
  -16.4400005      -7.82503992E-17
  -16.3199997      -1.08499845E-16
  -16.2000008      -1.07109348E-16
  -16.0799999      -6.68449815E-17
  -15.9600000       6.09286267E-18
  -15.8400002       9.02977025E-17
  -15.7200003       1.53466144E-16
  -15.6000004       1.63129361E-16
  -15.4799995       1.01212834E-16
  -15.3599997      -2.30045728E-17
  -15.2399998      -1.68222914E-16
  -15.1199999      -2.69889182E-16
  -15.0000000      -2.62925247E-16
  -14.8800001      -1.12437615E-16
  -14.7600002       1.59415981E-16
  -14.6400003       4.64343356E-16
  -14.5200005       6.66718479E-16
  -14.3999996       6.30526191E-16
  -14.2799997       2.81714767E-16
  -14.1599998      -3.37762037E-16
  -14.0400000      -1.05119330E-15
  -13.9200001      -1.58249874E-15
  -13.8000002      -1.64569682E-15
  -13.6800003      -1.06441104E-15
  -13.5600004       1.22226020E-16
  -13.4399996       1.61633347E-15
  -13.3199997       2.91515812E-15
  -13.1999998       3.46352683E-15
  -13.0799999       2.86498688E-15
  -12.9600000       1.07790459E-15
  -12.8400002      -1.48748589E-15
  -12.7200003      -4.03244858E-15
  -12.6000004      -5.60195446E-15
  -12.4799995      -5.42684141E-15
  -12.3599997      -3.26039350E-15
  -12.2399998       4.26688427E-16
  -12.1199999       4.49794781E-15
  -12.0000000       7.47494548E-15
  -11.8800001       8.05406106E-15
  -11.7600002       5.64560334E-15
  -11.6400003       7.25324901E-16
  -11.5200005      -5.17326982E-15
  -11.3999996      -9.88374286E-15
  -11.2799997      -1.13506404E-14
  -11.1599998      -8.45198020E-15
  -11.0400000      -1.59015168E-15
  -10.9200001       7.21642425E-15
  -10.8000002       1.48536020E-14
  -10.6800003       1.81341927E-14
  -10.5600004       1.50024155E-14
  -10.4399996       5.48457899E-15
  -10.3199997      -8.01017205E-15
  -10.1999998      -2.12376469E-14
  -10.0799999      -2.94159669E-14
  -9.96000004      -2.88799576E-14
  -9.84000015      -1.85242988E-14
  -9.72000027      -4.87931476E-16
  -9.60000038       2.02404062E-14
  -9.47999954       3.72506896E-14
  -9.35999966       4.47530739E-14
  -9.23999977       3.95626118E-14
  -9.11999989       2.23353999E-14
  -9.00000000      -2.41227720E-15
  -8.88000011      -2.75712545E-14
  -8.76000023      -4.56244878E-14
  -8.64000034      -5.10559714E-14
  -8.52000046      -4.21923510E-14
  -8.39999962      -2.18515256E-14
  -8.27999973       3.45286819E-15
  -8.15999985       2.55414857E-14
  -8.03999996       3.72244045E-14
  -7.92000008       3.47570212E-14
  -7.80000019       1.93052107E-14
  -7.67999983      -3.10244409E-15
  -7.55999994      -2.32290231E-14
  -7.44000006      -3.15118483E-14
  -7.32000017      -2.14042854E-14
  -7.19999981       7.79863743E-15
  -7.07999992       4.95844990E-14
  -6.96000004       9.09333034E-14
  -6.84000015       1.15240052E-13
  -6.71999979       1.06962142E-13
  -6.59999990       5.69247069E-14
  -6.48000002      -3.31651854E-14
  -6.36000013      -1.48488914E-13
  -6.23999977      -2.62294987E-13
  -6.11999989      -3.40846790E-13
  -6.00000000      -3.51487529E-13
  -5.88000011      -2.72145967E-13
  -5.76000023      -9.98711273E-14
  -5.63999987       1.44197886E-13
  -5.51999998       4.15489447E-13
  -5.40000010       6.53126208E-13
  -5.28000021       7.92689048E-13
  -5.15999985       7.82066632E-13
  -5.03999996       5.96571078E-13
  -4.92000008       2.49128978E-13
  -4.80000019      -2.07867225E-13
  -4.67999983      -6.90595801E-13
  -4.55999994      -1.10070850E-12
  -4.44000006      -1.34748040E-12
  -4.32000017      -1.36972215E-12
  -4.19999981      -1.15150923E-12
  -4.07999992      -7.27010032E-13
  -3.96000004      -1.72462020E-13
  -3.83999991       4.13054600E-13
  -3.72000003       9.32965402E-13
  -3.59999990       1.31741558E-12
  -3.48000002       1.53896362E-12
  -3.35999990       1.61452319E-12
  -3.24000001       1.59228392E-12
  -3.11999989       1.52705452E-12
  -3.00000000       1.45152553E-12
  -2.88000011       1.35304365E-12
  -2.75999999       1.16481044E-12
  -2.64000010       7.76938789E-13
  -2.51999998       6.73019312E-14
  -2.40000010      -1.05392767E-12
  -2.27999997      -2.59706232E-12
  -2.16000009      -4.45629558E-12
  -2.03999996      -6.39581704E-12
  -1.91999996      -8.06619268E-12
  -1.79999995      -9.05165005E-12
  -1.67999995      -8.94132771E-12
  -1.55999994      -7.41130421E-12
  -1.44000006      -4.30104129E-12
  -1.32000005       3.31415261E-13
  -1.20000005       6.18646844E-12
  -1.08000004       1.27360102E-11
 -0.959999979       1.92683959E-11
 -0.839999974       2.49551456E-11
 -0.720000029       2.89265851E-11
 -0.600000024       3.03453582E-11
 -0.479999989       2.84720667E-11
 -0.360000014       2.27242131E-11
 -0.239999995       1.27352790E-11
 -0.119999997      -1.57744174E-12
  -1.11022302E-15  -1.99312129E-11
  0.119999997      -4.15856828E-11
  0.239999995      -6.52540036E-11
  0.360000014      -8.90399976E-11
  0.479999989      -1.10427209E-10
  0.600000024      -1.26340757E-10
  0.720000029      -1.33289713E-10
  0.839999974      -1.27579655E-10
  0.959999979      -1.05567756E-10
   1.08000004      -6.39208686E-11
   1.20000005       1.63124763E-13
   1.32000005       8.88012441E-11
   1.44000006       2.03350378E-10
   1.55999994       3.44403589E-10
   1.67999995       5.11835907E-10
   1.79999995       7.04872272E-10
   1.91999996       9.22158350E-10
   2.03999996       1.16182874E-09
   2.16000009       1.42158407E-09
   2.27999997       1.69879799E-09
   2.40000010       1.99067340E-09
   2.51999998       2.29445507E-09
   2.64000010       2.60768518E-09
   2.75999999       2.92846947E-09
   2.88000011       3.25570992E-09
   3.00000000       3.58926155E-09
   3.11999989       3.92999100E-09
   3.24000001       4.27973479E-09
   3.35999990       4.64117944E-09
   3.48000002       5.01770669E-09
   3.59999990       5.41323519E-09
   3.72000003       5.83209037E-09
   3.83999991       6.27890318E-09
   3.96000004       6.75852574E-09
   4.07999992       7.27593852E-09
   4.19999981       7.83612641E-09
   4.32000017       8.44392822E-09
   4.44000006       9.10387588E-09
   4.55999994       9.82006387E-09
   4.67999983       1.05961009E-08
   4.80000019       1.14351719E-08
   4.92000008       1.23402124E-08
   5.03999996       1.33141747E-08
   5.15999985       1.43603023E-08
   5.28000021       1.54823514E-08
   5.40000010       1.66846945E-08
   5.51999998       1.79722601E-08
   5.63999987       1.93503542E-08
   5.76000023       2.08244071E-08
   5.88000011       2.23997567E-08
   6.00000000       2.40815741E-08
   6.11999989       2.58749626E-08
   6.23999977       2.77852763E-08
   6.36000013       2.98185547E-08
   6.48000002       3.19819939E-08
   6.59999990       3.42843194E-08
   6.71999979       3.67359227E-08
   6.84000015       3.93488122E-08
   6.96000004       4.21362856E-08
   7.07999992       4.51125608E-08
   7.19999981       4.82923852E-08
   7.32000017       5.16908614E-08
   7.44000006       5.53234685E-08
   7.55999994       5.92063074E-08
   7.67999983       6.33564596E-08
   7.80000019       6.77923140E-08
   7.92000008       7.25337586E-08
   8.03999996       7.76020315E-08
   8.15999985       8.30193443E-08
   8.27999973       8.88083349E-08
   8.39999962       9.49914778E-08
   8.52000046       1.01590629E-07
   8.64000034       1.08626878E-07
   8.76000023       1.16120802E-07
   8.88000011       1.24092892E-07
   9.00000000       1.32564224E-07
   9.11999989       1.41557095E-07
   9.23999977       1.51095463E-07
   9.35999966       1.61205207E-07
   9.47999954       1.71913953E-07
   9.60000038       1.83250961E-07
   9.72000027       1.95246784E-07
   9.84000015       2.07933070E-07
   9.96000004       2.21342631E-07
   10.0799999       2.35509702E-07
   10.1999998       2.50470407E-07
   10.3199997       2.66263442E-07
   10.4399996       2.82930415E-07
   10.5600004       3.00516461E-07
   10.6800003       3.19070125E-07
   10.8000002       3.38643360E-07
   10.9200001       3.59290738E-07
   11.0400000       3.81068986E-07
   11.1599998       4.04036058E-07
   11.2799997       4.28250559E-07
   11.3999996       4.53771435E-07
   11.5200005       4.80658116E-07
   11.6400003       5.08970857E-07
   11.7600002       5.38771587E-07
   11.8800001       5.70124598E-07
   12.0000000       6.03097249E-07
   12.1199999       6.37760138E-07
   12.2399998       6.74186822E-07
   12.3599997       7.12453357E-07
   12.4799995       7.52637561E-07
   12.6000004       7.94817765E-07
   12.7200003       8.39073095E-07
   12.8400002       8.85483644E-07
   12.9600000       9.34131378E-07
   13.0799999       9.85101224E-07
   13.1999998       1.03848299E-06
   13.3199997       1.09437167E-06
   13.4399996       1.15286764E-06
   13.5600004       1.21407641E-06
   13.6800003       1.27810642E-06
   13.8000002       1.34506752E-06
   13.9200001       1.41506962E-06
   14.0400000       1.48822073E-06
   14.1599998       1.56462806E-06
   14.2799997       1.64439859E-06
   14.3999996       1.72764123E-06
   14.5200005       1.81446899E-06
   14.6400003       1.90499998E-06
   14.7600002       1.99935903E-06
   14.8800001       2.09767563E-06
   15.0000000       2.20008314E-06
   15.1199999       2.30671458E-06
   15.2399998       2.41770158E-06
   15.3599997       2.53317148E-06
   15.4799995       2.65324888E-06
   15.6000004       2.77805566E-06
   15.7200003       2.90771322E-06
   15.8400002       3.04234686E-06
   15.9600000       3.18208708E-06
   16.0799999       3.32707100E-06
   16.2000008       3.47744208E-06
   16.3199997       3.63334834E-06
   16.4400005       3.79493872E-06
   16.5599995       3.96236146E-06
   16.6800003       4.13575981E-06
   16.7999992       4.31527451E-06
   16.9200001       4.50104017E-06
   17.0400009       4.69319048E-06
   17.1599998       4.89185868E-06
   17.2800007       5.09718075E-06
   17.3999996       5.30929537E-06
   17.5200005       5.52834490E-06
   17.6399994       5.75447029E-06
   17.7600002       5.98781207E-06
   17.8799992       6.22850303E-06
   18.0000000       6.47666729E-06
   18.1200008       6.73241766E-06
   18.2399998       6.99585962E-06
   18.3600006       7.26709141E-06
   18.4799995       7.54620805E-06
   18.6000004       7.83330688E-06
   18.7199993       8.12848884E-06
   18.8400002       8.43185990E-06
   18.9599991       8.74352463E-06
   19.0799999       9.06359128E-06
   19.2000008       9.39215533E-06
   19.3199997       9.72930502E-06
   19.4400005       1.00751122E-05
   19.5599995       1.04296341E-05
   19.6800003       1.07929136E-05
   19.7999992       1.11649879E-05
   19.9200001       1.15458897E-05
   20.0400009       1.19356482E-05
   20.1599998       1.23342934E-05
   20.2800007       1.27418543E-05
   20.3999996       1.31583529E-05
   20.5200005       1.35837981E-05
   20.6399994       1.40181801E-05
   20.7600002       1.44614696E-05
   20.8799992       1.49136176E-05
   21.0000000       1.53745586E-05
   21.1200008       1.58442144E-05
   21.2399998       1.63225068E-05
   21.3600006       1.68093538E-05
   21.4799995       1.73046792E-05
   21.6000004       1.78084083E-05
   21.7199993       1.83204556E-05
   21.8400002       1.88407266E-05
   21.9599991       1.93691030E-05
   22.0799999       1.99054430E-05
   22.2000008       2.04495682E-05
   22.3199997       2.10012859E-05
   22.4400005       2.15603868E-05
   22.5599995       2.21266400E-05
   22.6800003       2.26998200E-05
   22.7999992       2.32796920E-05
   22.9200001       2.38660195E-05
   23.0400009       2.44585644E-05
   23.1599998       2.50570683E-05
   23.2800007       2.56612548E-05
   23.3999996       2.62708290E-05
   23.5200005       2.68854637E-05
   23.6399994       2.75048096E-05
   23.7600002       2.81284993E-05
   23.8799992       2.87561579E-05
   24.0000000       2.93873982E-05
   24.1200008       3.00218253E-05
   24.2399998       3.06590446E-05
   24.3600006       3.12986558E-05
   24.4799995       3.19402498E-05
   24.6000004       3.25834080E-05
   24.7199993       3.32276904E-05
   24.8400002       3.38726422E-05
   24.9599991       3.45177832E-05
   25.0799999       3.51626259E-05
   25.2000008       3.58066718E-05
   25.3199997       3.64494008E-05
   25.4400005       3.70902999E-05
   25.5599995       3.77288343E-05
   25.6800003       3.83644838E-05
   25.7999992       3.89967026E-05
   25.9200001       3.96249416E-05
   26.0400009       4.02486439E-05
   26.1599998       4.08672349E-05
   26.2800007       4.14801252E-05
   26.3999996       4.20867109E-05
   26.5200005       4.26863808E-05
   26.6399994       4.32785237E-05
   26.7600002       4.38625138E-05
   26.8799992       4.44377401E-05
   27.0000000       4.50035805E-05
   27.1200008       4.55594200E-05
   27.2399998       4.61046511E-05
   27.3600006       4.66386518E-05
   27.4799995       4.71608109E-05
   27.6000004       4.76705100E-05
   27.7199993       4.81671268E-05
   27.8400002       4.86500503E-05
   27.9599991       4.91186620E-05
   28.0799999       4.95723507E-05
   28.2000008       5.00105016E-05
   28.3199997       5.04325108E-05
   28.4400005       5.08377561E-05
   28.5599995       5.12256338E-05
   28.6800003       5.15955289E-05
   28.7999992       5.19468340E-05
   28.9200001       5.22789487E-05
   29.0400009       5.25912837E-05
   29.1599998       5.28832461E-05
   29.2800007       5.31542646E-05
   29.3999996       5.34037681E-05
   29.5200005       5.36312036E-05
   29.6399994       5.38360291E-05
   29.7600002       5.40177134E-05
   29.8799992       5.41757327E-05
   30.0000000       5.43095848E-05
   30.1200008       5.44187678E-05
   30.2399998       5.45027979E-05
   30.3600006       5.45611874E-05
   30.4799995       5.45934818E-05
   30.6000004       5.45992225E-05
   30.7199993       5.45779876E-05
   30.8400002       5.45293769E-05
   30.9599991       5.44530158E-05
   31.0799999       5.43485403E-05
   31.2000008       5.42156231E-05
   31.3199997       5.40539222E-05
   31.4400005       5.38631139E-05
   31.5599995       5.36428815E-05
   31.6800003       5.33929160E-05
   31.7999992       5.31129372E-05
   31.9200001       5.28026903E-05
   32.0400009       5.24619572E-05
   32.1599998       5.20905560E-05
   32.2799988       5.16883265E-05
   32.4000015       5.12551451E-05
   32.5200005       5.07908808E-05
   32.6399994       5.02954063E-05
   32.7599983       4.97685978E-05
   32.8800011       4.92103427E-05
   33.0000000       4.86205499E-05
   33.1199989       4.79991431E-05
   33.2400017       4.73460968E-05
   33.3600006       4.66614074E-05
   33.4799995       4.59451039E-05
   33.5999985       4.51972337E-05
   33.7200012       4.44178331E-05
   33.8400002       4.36069568E-05
   33.9599991       4.27646482E-05
   34.0800018       4.18909476E-05
   34.2000008       4.09859167E-05
   34.3199997       4.00496247E-05
   34.4399986       3.90821806E-05
   34.5600014       3.80837409E-05
   34.6800003       3.70544949E-05
   34.7999992       3.59946644E-05
   34.9199982       3.49045076E-05
   35.0400009       3.37842903E-05
   35.1599998       3.26342815E-05
   35.2799988       3.14547433E-05
   35.4000015       3.02459302E-05
   35.5200005       2.90080770E-05
   35.6399994       2.77414165E-05
   35.7599983       2.64461887E-05
   35.8800011       2.51226520E-05
   36.0000000       2.37710974E-05
   36.1199989       2.23918487E-05
   36.2400017       2.09852678E-05
   36.3600006       1.95517368E-05
   36.4799995       1.80916559E-05
   36.5999985       1.66054197E-05
   36.7200012       1.50934038E-05
   36.8400002       1.35559658E-05
   36.9599991       1.19934393E-05
   37.0800018       1.04061428E-05
   37.2000008       8.79438994E-06
   37.3199997       7.15850092E-06
   37.4399986       5.49880497E-06
   37.5600014       3.81564587E-06
   37.6800003       2.10937810E-06
   37.7999992       3.80362195E-07
   37.9199982      -1.37104394E-06
   38.0400009      -3.14449085E-06
   38.1599998      -4.93964171E-06
   38.2799988      -6.75617457E-06
   38.4000015      -8.59378270E-06
   38.5200005      -1.04521723E-05
   38.6399994      -1.23310592E-05
   38.7599983      -1.42301733E-05
   38.8800011      -1.61492553E-05
   39.0000000      -1.80880561E-05
   39.1199989      -2.00463528E-05
   39.2400017      -2.20239363E-05
   39.3600006      -2.40206264E-05
   39.4799995      -2.60362685E-05
   39.5999985      -2.80707300E-05
   39.7200012      -3.01239106E-05
   39.8400002      -3.21957232E-05
   39.9599991      -3.42861058E-05
   40.0800018      -3.63949912E-05
   40.2000008      -3.85223466E-05
   40.3199997      -4.06681356E-05
   40.4399986      -4.28323365E-05
   40.5600014      -4.50149564E-05
   40.6800003      -4.72160427E-05
   40.7999992      -4.94356718E-05
   40.9199982      -5.16739638E-05
   41.0400009      -5.39311004E-05
   41.1599998      -5.62073074E-05
   41.2799988      -5.85028647E-05
   41.4000015      -6.08180744E-05
   41.5200005      -6.31532748E-05
   41.6399994      -6.55088297E-05
   41.7599983      -6.78851138E-05
   41.8800011      -7.02825200E-05
   42.0000000      -7.27014849E-05
   42.1199989      -7.51424159E-05
   42.2400017      -7.76057714E-05
   42.3600006      -8.00920243E-05
   42.4799995      -8.26017058E-05
   42.5999985      -8.51353689E-05
   42.7200012      -8.76935956E-05
   42.8400002      -9.02770626E-05
   42.9599991      -9.28864683E-05
   43.0800018      -9.55225696E-05
   43.2000008      -9.81861449E-05
   43.3199997      -1.00878024E-04
   43.4399986      -1.03599006E-04
   43.5600014      -1.06349915E-04
   43.6800003      -1.09131601E-04
   43.7999992      -1.11944893E-04
   43.9199982      -1.14790644E-04
   44.0400009      -1.17669748E-04
   44.1599998      -1.20583107E-04
   44.2799988      -1.23531689E-04
   44.4000015      -1.26516490E-04
   44.5200005      -1.29538501E-04
   44.6399994      -1.32598769E-04
   44.7599983      -1.35698298E-04
   44.8800011      -1.38838092E-04
   45.0000000      -1.42019169E-04
   45.1199989      -1.45242535E-04
   45.2400017      -1.48509222E-04
   45.3600006      -1.51820306E-04
   45.4799995      -1.55176822E-04
   45.5999985      -1.58579802E-04
   45.7200012      -1.62030337E-04
   45.8400002      -1.65529404E-04
   45.9599991      -1.69077990E-04
   46.0800018      -1.72677072E-04
   46.2000008      -1.76327594E-04
   46.3199997      -1.80030504E-04
   46.4399986      -1.83786673E-04
   46.5600014      -1.87597005E-04
   46.6800003      -1.91462299E-04
   46.7999992      -1.95383342E-04
   46.9199982      -1.99360904E-04
   47.0400009      -2.03395655E-04
   47.1599998      -2.07488280E-04
   47.2799988      -2.11639359E-04
   47.4000015      -2.15849534E-04
   47.5200005      -2.20119327E-04
   47.6399994      -2.24449279E-04
   47.7599983      -2.28839752E-04
   47.8800011      -2.33291095E-04
   48.0000000      -2.37803470E-04
   48.1199989      -2.42376991E-04
   48.2400017      -2.47011660E-04
   48.3600006      -2.51707417E-04
   48.4799995      -2.56464118E-04
   48.5999985      -2.61281617E-04
   48.7200012      -2.66159710E-04
   48.8400002      -2.71098048E-04
   48.9599991      -2.76096252E-04
   49.0800018      -2.81153829E-04
   49.2000008      -2.86270137E-04
   49.3199997      -2.91444419E-04
   49.4399986      -2.96675746E-04
   49.5600014      -3.01963126E-04
   49.6800003      -3.07305338E-04
   49.7999992      -3.12701188E-04
   49.9199982      -3.18149308E-04
   50.0400009      -3.23648244E-04
   50.1599998      -3.29196453E-04
   50.2799988      -3.34792130E-04
   50.4000015      -3.40433442E-04
   50.5200005      -3.46118468E-04
   50.6399994      -3.51845054E-04
   50.7599983      -3.57610959E-04
   50.8800011      -3.63413652E-04
   51.0000000      -3.69250716E-04
   51.1199989      -3.75119387E-04
   51.2400017      -3.81016871E-04
   51.3600006      -3.86940286E-04
   51.4799995      -3.92886548E-04
   51.5999985      -3.98852426E-04
   51.7200012      -4.04834602E-04
   51.8400002      -4.10829700E-04
   51.9599991      -4.16834111E-04
   52.0800018      -4.22844168E-04
   52.2000008      -4.28856059E-04
   52.3199997      -4.34865797E-04
   52.4399986      -4.40869160E-04
   52.5600014      -4.46861901E-04
   52.6800003      -4.52839566E-04
   52.7999992      -4.58797585E-04
   52.9199982      -4.64731333E-04
   53.0400009      -4.70636063E-04
   53.1599998      -4.76506946E-04
   53.2799988      -4.82339092E-04
   53.4000015      -4.88127524E-04
   53.5200005      -4.93867148E-04
   53.6399994      -4.99552756E-04
   53.7599983      -5.05178992E-04
   53.8800011      -5.10740501E-04
   54.0000000      -5.16231870E-04
   54.1199989      -5.21647453E-04
   54.2400017      -5.26981719E-04
   54.3600006      -5.32229024E-04
   54.4799995      -5.37383545E-04
   54.5999985      -5.42439462E-04
   54.7200012      -5.47390897E-04
   54.8400002      -5.52231912E-04
   54.9599991      -5.56956627E-04
   55.0800018      -5.61559165E-04
   55.2000008      -5.66033646E-04
   55.3199997      -5.70374134E-04
   55.4399986      -5.74574980E-04
   55.5600014      -5.78630425E-04
   55.6800003      -5.82534529E-04
   55.7999992      -5.86281531E-04
   55.9199982      -5.89865318E-04
   56.0400009      -5.93280187E-04
   56.1599998      -5.96520258E-04
   56.2799988      -5.99579769E-04
   56.4000015      -6.02453132E-04
   56.5200005      -6.05134876E-04
   56.6399994      -6.07619702E-04
   56.7599983      -6.09902258E-04
   56.8800011      -6.11977535E-04
   57.0000000      -6.13840413E-04
   57.1199989      -6.15486060E-04
   57.2400017      -6.16909470E-04
   57.3600006      -6.18106104E-04
   57.4799995      -6.19071245E-04
   57.5999985      -6.19800761E-04
   57.7200012      -6.20290346E-04
   57.8400002      -6.20536273E-04
   57.9599991      -6.20534411E-04
   58.0800018      -6.20281266E-04
   58.2000008      -6.19773171E-04
   58.3199997      -6.19006983E-04
   58.4399986      -6.17979676E-04
   58.5600014      -6.16688514E-04
   58.6800003      -6.15131226E-04
   58.7999992      -6.13305543E-04
   58.9199982      -6.11209718E-04
   59.0400009      -6.08841889E-04
   59.1599998      -6.06200832E-04
   59.2799988      -6.03285094E-04
   59.4000015      -6.00093859E-04
   59.5200005      -5.96626312E-04
   59.6399994      -5.92882105E-04
   59.7599983      -5.88861119E-04
   59.8800011      -5.84563531E-04
   60.0000000      -5.79990156E-04
   60.1199989      -5.75141748E-04
   60.2400017      -5.70019649E-04
   60.3600006      -5.64625429E-04
   60.4799995      -5.58961066E-04
   60.5999985      -5.53028658E-04
   60.7200012      -5.46830823E-04
   60.8400002      -5.40370296E-04
   60.9599991      -5.33650105E-04
   61.0800018      -5.26673626E-04
   61.2000008      -5.19444642E-04
   61.3199997      -5.11967053E-04
   61.4399986      -5.04245225E-04
   61.5600014      -4.96284047E-04
   61.6800003      -4.88088408E-04
   61.7999992      -4.79663926E-04
   61.9199982      -4.71016276E-04
   62.0400009      -4.62151482E-04
   62.1599998      -4.53075831E-04
   62.2799988      -4.43795754E-04
   62.4000015      -4.34317975E-04
   62.5200005      -4.24649479E-04
   62.6399994      -4.14797600E-04
   62.7599983      -4.04769904E-04
   62.8800011      -3.94574483E-04
   63.0000000      -3.84219602E-04
   63.1199989      -3.73713730E-04
   63.2400017      -3.63065570E-04
   63.3600006      -3.52284056E-04
   63.4799995      -3.41378240E-04
   63.5999985      -3.30357318E-04
   63.7200012      -3.19230632E-04
   63.8400002      -3.08007759E-04
   63.9599991      -2.96698330E-04
   64.0800018      -2.85312301E-04
   64.1999969      -2.73859652E-04
   64.3199997      -2.62350572E-04
   64.4400024      -2.50795420E-04
   64.5599976      -2.39204630E-04
   64.6800003      -2.27588753E-04
   64.8000031      -2.15958382E-04
   64.9199982      -2.04324126E-04
   65.0400009      -1.92696549E-04
   65.1600037      -1.81086230E-04
   65.2799988      -1.69503648E-04
   65.4000015      -1.57959337E-04
   65.5199966      -1.46463804E-04
   65.6399994      -1.35027629E-04
   65.7600021      -1.23661302E-04
   65.8799973      -1.12375317E-04
   66.0000000      -1.01180063E-04
   66.1200027      -9.00857485E-05
   66.2399979      -7.91024067E-05
   66.3600006      -6.82398750E-05
   66.4800034      -5.75078084E-05
   66.5999985      -4.69157312E-05
   66.7200012      -3.64730404E-05
   66.8399963      -2.61890073E-05
   66.9599991      -1.60727250E-05
   67.0800018      -6.13305428E-06
   67.1999969       3.62142055E-06
   67.3199997       1.31824345E-05
   67.4400024       2.25420499E-05
   67.5599976       3.16926562E-05
   67.6800003       4.06269355E-05
   67.8000031       4.93378320E-05
   67.9199982       5.78185573E-05
   68.0400009       6.60625956E-05
   68.1600037       7.40637333E-05
   68.2799988       8.18161134E-05
   68.4000015       8.93142424E-05
   68.5199966       9.65530417E-05
   68.6399994       1.03527804E-04
   68.7600021       1.10234228E-04
   68.8799973       1.16668394E-04
   69.0000000       1.22826794E-04
   69.1200027       1.28706262E-04
   69.2399979       1.34304079E-04
   69.3600006       1.39617958E-04
   69.4800034       1.44646023E-04
   69.5999985       1.49386804E-04
   69.7200012       1.53839224E-04
   69.8399963       1.58002527E-04
   69.9599991       1.61876378E-04
   70.0800018       1.65460748E-04
   70.1999969       1.68756043E-04
   70.3199997       1.71763095E-04
   70.4400024       1.74483197E-04
   70.5599976       1.76918125E-04
   70.6800003       1.79070077E-04
   70.8000031       1.80941570E-04
   70.9199982       1.82535528E-04
   71.0400009       1.83855111E-04
   71.1600037       1.84903765E-04
   71.2799988       1.85685232E-04
   71.4000015       1.86203630E-04
   71.5199966       1.86463454E-04
   71.6399994       1.86469668E-04
   71.7600021       1.86227611E-04
   71.8799973       1.85743032E-04
   72.0000000       1.85021927E-04
   72.1200027       1.84070537E-04
   72.2399979       1.82895325E-04
   72.3600006       1.81502823E-04
   72.4800034       1.79899856E-04
   72.5999985       1.78093367E-04
   72.7200012       1.76090558E-04