  -30.0000000       0.00000000    
  -29.8799992       0.00000000    
  -29.7600002       0.00000000    
  -29.6399994       2.46628530E-43
  -29.5200005       1.24715563E-43
  -29.3999996      -1.20371538E-42
  -29.2800007      -2.78858394E-42
  -29.1599998      -2.10194770E-42
  -29.0400009       1.83990488E-41
  -28.9200001       1.18086020E-40
  -28.7999992       3.45117391E-40
  -28.6800003       4.36723074E-40
  -28.5599995      -6.05097492E-40
  -28.4400005      -4.14923214E-39
  -28.3199997      -9.43933283E-39
  -28.2000008      -9.36503038E-39
  -28.0799999       1.04660880E-38
  -27.9599991       6.03355903E-38
  -27.8400002       1.18652705E-37
  -27.7199993       1.04211988E-37
  -27.6000004      -1.07376367E-37
  -27.4799995      -5.74477484E-37
  -27.3600006      -1.09638901E-36
  -27.2399998      -1.07025966E-36
  -27.1200008       3.50710410E-37
  -27.0000000       3.58821695E-36
  -26.8799992       7.58410315E-36
  -26.7600002       9.05832044E-36
  -26.6399994       3.22266002E-36
  -26.5200005      -1.31787969E-35
  -26.3999996      -3.70331058E-35
  -26.2800007      -5.49722746E-35
  -26.1599998      -4.48710760E-35
  -26.0400009       1.36336223E-35
  -25.9200001       1.20544822E-34
  -25.7999992       2.37201375E-34
  -25.6800003       2.82985273E-34
  -25.5599995       1.61259504E-34
  -25.4400005      -1.82829033E-34
  -25.3199997      -6.91336743E-34
  -25.2000008      -1.14970740E-33
  -25.0799999      -1.21790536E-33
  -24.9599991      -5.64001042E-34
  -24.8400002       9.21947107E-34
  -24.7199993       2.91870821E-33
  -24.6000004       4.59809456E-33
  -24.4799995       4.80031853E-33
  -24.3600006       2.49370474E-33
  -24.2399998      -2.59061047E-33
  -24.1200008      -9.40494590E-33
  -24.0000000      -1.54418007E-32
  -23.8799992      -1.72642490E-32
  -23.7600002      -1.17480698E-32
  -23.6399994       2.25781204E-33
  -23.5200005       2.24641129E-32
  -23.3999996       4.26327527E-32
  -23.2800007       5.36582961E-32
  -23.1599998       4.64068125E-32
  -23.0400009       1.57698885E-32
  -22.9200001      -3.53560019E-32
  -22.7999992      -9.39411709E-32
  -22.6800003      -1.38239429E-31
  -22.5599995      -1.43593088E-31
  -22.4400005      -9.18919904E-32
  -22.3199997       1.79668640E-32
  -22.2000008       1.62813514E-31
  -22.0799999       2.95615388E-31
  -21.9599991       3.56413837E-31
  -21.8400002       2.93059605E-31
  -21.7199993       8.63975124E-32
  -21.6000004      -2.29370522E-31
  -21.4799995      -5.61611422E-31
  -21.3600006      -7.76996735E-31
  -21.2399998      -7.42498797E-31
  -21.1200008      -3.80699550E-31
  -21.0000000       2.78109480E-31
  -20.8799992       1.06882153E-30
  -20.7600002       1.70856486E-30
  -20.6399994       1.86678001E-30
  -20.5200005       1.28061599E-30
  -20.3999996      -1.11506360E-31
  -20.2800007      -2.06240973E-30
  -20.1599998      -3.98721778E-30
  -20.0400009      -5.05788136E-30
  -19.9200001      -4.43778759E-30
  -19.7999992      -1.62438273E-30
  -19.6800003       3.19181210E-30
  -19.5599995       8.89365183E-30
  -19.4400005       1.34848439E-29
  -19.3199997       1.45265448E-29
  -19.2000008       9.95439687E-30
  -19.0799999      -8.98007813E-31
  -18.9599991      -1.64051721E-29
  -18.8400002      -3.23075139E-29
  -18.7199993      -4.22884142E-29
  -18.6000004      -3.96137067E-29
  -18.4799995      -1.96158478E-29
  -18.3600006       1.75973874E-29
  -18.2399998       6.51385257E-29
  -18.1200008       1.09051414E-28
  -18.0000000       1.30515698E-28
  -17.8799992       1.10758943E-28
  -17.7600002       3.80612748E-29
  -17.6399994      -8.47123235E-29
  -17.5200005      -2.34466034E-28
  -17.3999996      -3.66979234E-28
  -17.2800007      -4.23335580E-28
  -17.1599998      -3.44886338E-28
  -17.0400009      -9.54196033E-29
  -16.9200001       3.14216361E-28
  -16.7999992       8.07202692E-28
  -16.6800003       1.23769378E-27
  -16.5599995       1.41266538E-27
  -16.4400005       1.14239607E-27
  -16.3199997       3.13876146E-28
  -16.2000008      -1.03021816E-27
  -16.0799999      -2.63452387E-27
  -15.9600000      -4.02756749E-27
  -15.8400002      -4.59731881E-27
  -15.7200003      -3.75283127E-27
  -15.6000004      -1.15053023E-27
  -15.4799995       3.06888867E-27
  -15.3599997       8.11387969E-27
  -15.2399998       1.25362624E-26
  -15.1199999       1.44587542E-26
  -15.0000000       1.20574292E-26
  -14.8800001       4.24026449E-27
  -14.7600002      -8.63248948E-27
  -14.6400003      -2.42242529E-26
  -14.5200005      -3.81699593E-26
  -14.3999996      -4.47275782E-26
  -14.2799997      -3.82174944E-26
  -14.1599998      -1.50880110E-26
  -14.0400000       2.38547748E-26
  -13.9200001       7.17823981E-26
  -13.8000002       1.15597705E-25
  -13.6800003       1.37825550E-25
  -13.5600004       1.20905827E-25
  -13.4399996       5.34048664E-26
  -13.3199997      -6.32342520E-26
  -13.1999998      -2.09567062E-25
  -13.0799999      -3.47156163E-25
  -12.9600000      -4.23822621E-25
  -12.8400002      -3.85947511E-25
  -12.7200003      -1.96513448E-25
  -12.6000004       1.44953241E-25
  -12.4799995       5.86616986E-25
  -12.3599997       1.01988918E-24
  -12.2399998       1.29252345E-24
  -12.1199999       1.24205371E-24
  -12.0000000       7.46635202E-25
  -11.8800001      -2.16721045E-25
  -11.7600002      -1.52309852E-24
  -11.6400003      -2.88002151E-24
  -11.5200005      -3.85574069E-24
  -11.3999996      -3.96542904E-24
  -11.2799997      -2.80996218E-24
  -11.1599998      -2.42364029E-25
  -11.0400000       3.48198510E-24
  -10.9200001       7.62709377E-24
  -10.8000002       1.10237300E-23
  -10.6800003       1.22755821E-23
  -10.5600004       1.01183212E-23
  -10.4399996       3.87395983E-24
  -10.3199997      -6.10906112E-24
  -10.1999998      -1.81751060E-23
  -10.0799999      -2.93866023E-23
  -9.96000004      -3.59575107E-23
  -9.84000015      -3.41050286E-23
  -9.72000027      -2.12029103E-23
  -9.60000038       3.01269983E-24
  -9.47999954       3.55326113E-23
  -9.35999966       6.98298411E-23
  -9.23999977       9.65688495E-23
  -9.11999989       1.05361664E-22
  -9.00000000       8.73828040E-23
  -8.88000011       3.83497408E-23
  -8.76000023      -3.88685557E-23
  -8.64000034      -1.32844871E-22
  -8.52000046      -2.24093800E-22
  -8.39999962      -2.87825405E-22
  -8.27999973      -2.98762728E-22
  -8.15999985      -2.37242912E-22
  -8.03999996      -9.53457680E-23
  -7.92000008       1.18402393E-22
  -7.80000019       3.77015206E-22
  -7.67999983       6.36436923E-22
  -7.55999994       8.40290597E-22
  -7.44000006       9.27237660E-22
  -7.32000017       8.39859236E-22
  -7.19999981       5.34159807E-22
  -7.07999992      -1.05303086E-23
  -6.96000004      -7.80694011E-22
  -6.84000015      -1.71600456E-21
  -6.71999979      -2.69514023E-21
  -6.59999990      -3.52293274E-21
  -6.48000002      -3.92593813E-21
  -6.36000013      -3.56794058E-21
  -6.23999977      -2.09941368E-21
  -6.11999989       7.47478600E-22
  -6.00000000       5.01668563E-21
  -5.88000011       1.03559208E-20
  -5.76000023       1.58566678E-20
  -5.63999987       1.99754618E-20
  -5.51999998       2.06224948E-20
  -5.40000010       1.54987377E-20
  -5.28000021       2.72409902E-21
  -5.15999985      -1.82798692E-20
  -5.03999996      -4.58028937E-20
  -4.92000008      -7.50326745E-20
  -4.80000019      -9.77977254E-20
  -4.67999983      -1.03278973E-19
  -4.55999994      -8.00075067E-20
  -4.44000006      -1.92083471E-20
  -4.32000017       8.08688344E-20
  -4.19999981       2.10516432E-19
  -4.07999992       3.45427935E-19
  -3.96000004       4.46562966E-19
  -3.83999991       4.64652579E-19
  -3.72000003       3.50325775E-19
  -3.59999990       6.95355229E-20
  -3.48000002      -3.77896377E-19
  -3.35999990      -9.40883722E-19
  -3.24000001      -1.50686531E-18
  -3.11999989      -1.90554268E-18
  -3.00000000      -1.93229619E-18
  -2.88000011      -1.39367650E-18
  -2.75999999      -1.71721816E-19
  -2.64000010       1.70351250E-18
  -2.51999998       3.99136359E-18
  -2.40000010       6.21161727E-18
  -2.27999997       7.67381245E-18
  -2.16000009       7.58330069E-18
  -2.03999996       5.22805692E-18
  -1.91999996       2.27951357E-19
  -1.79999995      -7.19873946E-18
  -1.67999995      -1.60224355E-17
  -1.55999994      -2.43299792E-17
  -1.44000006      -2.94777193E-17
  -1.32000005      -2.85265907E-17
  -1.20000005      -1.89587216E-17
  -1.08000004       4.06792691E-19
 -0.959999979       2.84751665E-17
 -0.839999974       6.11739635E-17
 -0.720000029       9.12925625E-17
 -0.600000024       1.09144854E-16
 -0.479999989       1.04223791E-16
 -0.360000014       6.78081307E-17
 -0.239999995      -3.80371974E-18
 -0.119999997      -1.06071878E-16
  -1.11022302E-15  -2.23910513E-16
  0.119999997      -3.31332502E-16
  0.239999995      -3.93967597E-16
  0.360000014      -3.74970977E-16
  0.479999989      -2.44124345E-16
  0.600000024       1.10276659E-17
  0.720000029       3.74197292E-16
  0.839999974       7.92584452E-16
  0.959999979       1.17576326E-15
   1.08000004       1.40428703E-15
   1.20000005       1.34971619E-15
   1.32000005       9.05410034E-16
   1.44000006       2.42818174E-17
   1.55999994      -1.24366565E-15
   1.67999995      -2.72405245E-15
   1.79999995      -4.11244152E-15
   1.91999996      -5.00051957E-15
   2.03999996      -4.94018287E-15
   2.16000009      -3.54416500E-15
   2.27999997      -6.11887231E-16
   2.40000010       3.74169478E-15
   2.51999998       8.98597941E-15
   2.64000010       1.41401732E-14
   2.75999999       1.78390204E-14
   2.88000011       1.85218238E-14
   3.00000000       1.47460271E-14
   3.11999989       5.59621751E-15
   3.24000001      -8.87519259E-15
   3.35999990      -2.72714048E-14
   3.48000002      -4.66554184E-14
   3.59999990      -6.26518490E-14
   3.72000003      -6.99358309E-14
   3.83999991      -6.31394080E-14
   3.96000004      -3.81183529E-14
   4.07999992       6.58368556E-15
   4.19999981       6.83426568E-14
   4.32000017       1.39483721E-13
   4.44000006       2.07113379E-13
   4.55999994       2.54087495E-13
   4.67999983       2.61310504E-13
   4.80000019       2.11329828E-13
   4.92000008       9.28868256E-14
   5.03999996      -9.42459611E-14
   5.15999985      -3.35107755E-13
   5.28000021      -5.97225123E-13
   5.40000010      -8.31268539E-13
   5.51999998      -9.75585498E-13
   5.63999987      -9.64978748E-13
   5.76000023      -7.43315186E-13
   5.88000011      -2.78609357E-13
   6.00000000       4.21744860E-13
   6.11999989       1.29870799E-12
   6.23999977       2.23580616E-12
   6.36000013       3.06313091E-12
   6.48000002       3.57350477E-12
   6.59999990       3.55148593E-12
   6.71999979       2.81351982E-12
   6.84000015       1.25481548E-12
   6.96000004      -1.10416060E-12
   7.07999992      -4.08076481E-12
   7.19999981      -7.31292457E-12
   7.32000017      -1.02708606E-11
   7.44000006      -1.23043112E-11
   7.55999994      -1.27269089E-11
   7.67999983      -1.09328891E-11
   7.80000019      -6.53385419E-12
   7.92000008       5.03865721E-13
   8.03999996       9.74622553E-12
   8.15999985       2.02303053E-11
   8.27999973       3.04805035E-11
   8.39999962       3.86206241E-11
   8.52000046       4.25881899E-11
   8.64000034       4.04409735E-11
   8.76000023       3.07267753E-11
   8.88000011       1.28690704E-11
   9.00000000      -1.24936780E-11
   9.11999989      -4.32850700E-11
   9.23999977      -7.59515714E-11
   9.35999966      -1.05659981E-10
   9.47999954      -1.26757382E-10
   9.60000038      -1.33481809E-10
   9.72000027      -1.20867219E-10
   9.84000015      -8.57417887E-11
   9.96000004      -2.76794646E-11
   10.0799999       5.02586757E-11
   10.1999998       1.41159875E-10
   10.3199997       2.34414571E-10
   10.4399996       3.16482174E-10
   10.5600004       3.72282122E-10
   10.6800003       3.87130189E-10
   10.8000002       3.49038409E-10
   10.9200001       2.51103249E-10
   11.0400000       9.36386385E-11
   11.1599998      -1.14320296E-10
   11.2799997      -3.54493324E-10
   11.3999996      -6.00082317E-10
   11.5200005      -8.17884538E-10
   11.6400003      -9.71746350E-10
   11.7600002      -1.02710507E-09
   11.8800001      -9.56160262E-10
   12.0000000      -7.43044681E-10
   12.1199999      -3.88252569E-10
   12.2399998       8.84360432E-11
   12.3599997       6.47208787E-10
   12.4799995       1.23012844E-09
   12.6000004       1.76586812E-09
   12.7200003       2.17707674E-09
   12.8400002       2.38976794E-09
   12.9600000       2.34375430E-09
   13.0799999       2.00283146E-09
   13.1999998       1.36326916E-09
   13.3199997       4.59166344E-10
   13.4399996      -6.36545372E-10
   13.5600004      -1.81624749E-09
   13.6800003      -2.94713187E-09
   13.8000002      -3.88553456E-09
   13.9200001      -4.49484627E-09
   14.0400000      -4.66504613E-09
   14.1599998      -4.33137037E-09
   14.2799997      -3.48937723E-09
   14.3999996      -2.20369945E-09
   14.5200005      -6.08231743E-10
   14.6400003       1.10370524E-09
   14.7600002       2.69956724E-09
   14.8800001       3.93712174E-09
   15.0000000       4.60085614E-09
   15.1199999       4.54142191E-09
   15.2399998       3.71316089E-09
   15.3599997       2.20408758E-09
   15.4799995       2.52598192E-10
   15.6000004      -1.75423787E-09
   15.7200003      -3.30460659E-09
   15.8400002      -3.80991017E-09
   15.9600000      -2.67591971E-09
   16.0799999       6.06689199E-10
   16.2000008       6.35943653E-09
   16.3199997       1.46107091E-08
   16.4400005       2.50005154E-08
   16.5599995       3.67093591E-08
   16.6800003       4.84258145E-08
   16.7999992       5.83663926E-08
   16.9200001       6.43588294E-08
   17.0400009       6.39957065E-08
   17.1599998       5.48599957E-08
   17.2800007       3.48171163E-08
   17.3999996       2.36084774E-09
   17.5200005      -4.30073577E-08
   17.6399994      -1.00393223E-07
   17.7600002      -1.67151853E-07
   17.8799992      -2.38594822E-07
   18.0000000      -3.07800320E-07
   18.1200008      -3.65562556E-07
   18.2399998      -4.00511709E-07
   18.3600006      -3.99425460E-07
   18.4799995      -3.47741945E-07
   18.6000004      -2.30268000E-07
   18.7199993      -3.20617595E-08
   18.8400002       2.60550536E-07
   18.9599991       6.58876104E-07
   19.0799999       1.17074421E-06
   19.2000008       1.79945721E-06
   19.3199997       2.54288466E-06
   19.4400005       3.39277813E-06
   19.5599995       4.33437481E-06
   19.6800003       5.34634455E-06
   19.7999992       6.40111966E-06
   19.9200001       7.46560590E-06
   20.0400009       8.50227389E-06
   20.1599998       9.47057379E-06
   20.2800007       1.03286147E-05
   20.3999996       1.10350275E-05
   20.5200005       1.15508892E-05
   20.6399994       1.18416247E-05
   20.7600002       1.18787657E-05
   20.8799992       1.16414622E-05
   21.0000000       1.11176741E-05
   21.1200008       1.03049715E-05
   21.2399998       9.21090941E-06
   21.3600006       7.85294924E-06
   21.4799995       6.25796110E-06
   21.6000004       4.46131980E-06
   21.7199993       2.50566950E-06
   21.8400002       4.39407017E-07
   21.9599991      -1.68502652E-06
   22.0799999      -3.81296945E-06
   22.2000008      -5.88939838E-06
   22.3199997      -7.86075270E-06
   22.4400005      -9.67665437E-06
   22.5599995      -1.12914740E-05
   22.6800003      -1.26657042E-05
   22.7999992      -1.37670913E-05
   22.9200001      -1.45715276E-05
   23.0400009      -1.50636706E-05
   23.1599998      -1.52372913E-05
   23.2800007      -1.50953438E-05
   23.3999996      -1.46497796E-05
   23.5200005      -1.39210879E-05
   23.6399994      -1.29375958E-05
   23.7600002      -1.17345371E-05
   23.8799992      -1.03529183E-05
   24.0000000      -8.83819848E-06
   24.1200008      -7.23883522E-06
   24.2399998      -5.60471881E-06
   24.3600006      -3.98554175E-06
   24.4799995      -2.42916622E-06
   24.6000004      -9.80021582E-07
   24.7199993       3.22392481E-07
   24.8400002       1.44485386E-06
   24.9599991       2.36155438E-06
   25.0799999       3.05497383E-06
   25.2000008       3.51644553E-06
   25.3199997       3.74637625E-06
   25.4400005       3.75410264E-06
   25.5599995       3.55736506E-06
   25.6800003       3.18142224E-06
   25.7999992       2.65782728E-06
   25.9200001       2.02291653E-06
   26.0400009       1.31608465E-06
   26.1599998       5.77922833E-07
   26.2800007      -1.51677966E-07
   26.3999996      -8.35357696E-07
   26.5200005      -1.43995237E-06
   26.6399994      -1.93789901E-06
   26.7600002      -2.30830392E-06
   26.8799992      -2.53762028E-06
   27.0000000      -2.61990340E-06
   27.1200008      -2.55664963E-06
   27.2399998      -2.35624566E-06
   27.3600006      -2.03308332E-06
   27.4799995      -1.60642037E-06
   27.6000004      -1.09907683E-06
   27.7199993      -5.36061464E-07
   27.8400002       5.67763685E-08
   27.9599991       6.53987968E-07
   28.0799999       1.23159543E-06
   28.2000008       1.76794845E-06
   28.3199997       2.24434871E-06
   28.4400005       2.64544587E-06
   28.5599995       2.95942982E-06
   28.6800003       3.17805552E-06
   28.7999992       3.29654335E-06
   28.9200001       3.31340243E-06
   29.0400009       3.23021277E-06
   29.1599998       3.05139633E-06
   29.2800007       2.78398966E-06
   29.3999996       2.43742306E-06
   29.5200005       2.02329215E-06
   29.6399994       1.55510747E-06
   29.7600002       1.04800176E-06
   29.8799992       5.18375373E-07
   30.0000000      -1.65315264E-08
   30.1200008      -5.39139990E-07
   30.2399998      -1.03209834E-06
   30.3600006      -1.47889068E-06
   30.4799995      -1.86445664E-06
   30.6000004      -2.17578622E-06
   30.7199993      -2.40245026E-06
   30.8400002      -2.53702979E-06
   30.9599991      -2.57542047E-06
   31.0799999      -2.51698725E-06
   31.2000008      -2.36456913E-06
   31.3199997      -2.12433997E-06
   31.4400005      -1.80553832E-06
   31.5599995      -1.42009640E-06
   31.6800003      -9.82192205E-07
   31.7999992      -5.07752304E-07
   31.9200001      -1.39312091E-08
   32.0400009       4.81417601E-07
   32.1599998       9.60269517E-07
   32.2799988       1.40495285E-06
   32.4000015       1.79867243E-06
   32.5200005       2.12603595E-06
   32.6399994       2.37358950E-06
   32.7599983       2.53035591E-06
   32.8800011       2.58837076E-06
   33.0000000       2.54319116E-06
   33.1199989       2.39434644E-06
   33.2400017       2.14569172E-06
   33.3600006       1.80561790E-06
   33.4799995       1.38706787E-06
   33.5999985       9.07317769E-07
   33.7200012       3.87491781E-07
   33.8400002      -1.48202659E-07
   33.9599991      -6.73511863E-07
   34.0800018      -1.16140984E-06
   34.2000008      -1.58554849E-06
   34.3199997      -1.92180005E-06
   34.4399986      -2.14978877E-06
   34.5600014      -2.25429858E-06
   34.6800003      -2.22644076E-06
   34.7999992      -2.06447999E-06
   34.9199982      -1.77423260E-06
   35.0400009      -1.36898564E-06
   35.1599998      -8.68918391E-07
   35.2799988      -3.00049038E-07
   35.4000015       3.07229357E-07
   35.5200005       9.19929391E-07
   35.6399994       1.50444214E-06
   35.7599983       2.02856381E-06
   35.8800011       2.46343598E-06
   36.0000000       2.78526682E-06
   36.1199989       2.97672341E-06
   36.2400017       3.02790704E-06
   36.3600006       2.93686890E-06
   36.4799995       2.70964733E-06
   36.5999985       2.35984862E-06
   36.7200012       1.90781611E-06
   36.8400002       1.37945938E-06
   36.9599991       8.04823173E-07
   37.0800018       2.16485162E-07
   37.2000008      -3.52132560E-07
   37.3199997      -8.68457732E-07
   37.4399986      -1.30239812E-06
   37.5600014      -1.62784534E-06
   37.6800003      -1.82400117E-06
   37.7999992      -1.87648220E-06
   37.9199982      -1.77816139E-06
   38.0400009      -1.52971404E-06
   38.1599998      -1.13983401E-06
   38.2799988      -6.25097528E-07
   38.4000015      -9.45516021E-09
   38.5200005       6.76652462E-07
   38.6399994       1.39754525E-06
   38.7599983       2.11389010E-06
   38.8800011       2.78457105E-06
   39.0000000       3.36876860E-06
   39.1199989       3.82815006E-06
   39.2400017       4.12905956E-06
   39.3600006       4.24457812E-06
   39.4799995       4.15632621E-06
   39.5999985       3.85588874E-06
   39.7200012       3.34574747E-06
   39.8400002       2.63964512E-06
   39.9599991       1.76232697E-06
   40.0800018       7.48649938E-07
   40.2000008      -3.57911915E-07
   40.3199997      -1.50729556E-06
   40.4399986      -2.64530604E-06
   40.5600014      -3.71636361E-06
   40.6800003      -4.66638812E-06
   40.7999992      -5.44565046E-06
   40.9199982      -6.01143211E-06
   41.0400009      -6.33033096E-06
   41.1599998      -6.38009897E-06
   41.2799988      -6.15090039E-06
   41.4000015      -5.64592256E-06
   41.5200005      -4.88132673E-06
   41.6399994      -3.88553235E-06
   41.7599983      -2.69788666E-06
   41.8800011      -1.36679137E-06
   42.0000000       5.26120090E-08
   42.1199989       1.50107962E-06
   42.2400017       2.91809033E-06
   42.3600006       4.24471591E-06
   42.4799995       5.42639373E-06
   42.5999985       6.41545967E-06
   42.7200012       7.17331204E-06
   42.8400002       7.67209258E-06
   42.9599991       7.89579190E-06
   43.0800018       7.84072472E-06
   43.2000008       7.51533889E-06
   43.3199997       6.93937227E-06
   43.4399986       6.14241662E-06
   43.5600014       5.16197133E-06
   43.6800003       4.04112052E-06
   43.7999992       2.82598376E-06
   43.9199982       1.56312035E-06
   44.0400009       2.97058961E-07
   44.1599998      -9.31872137E-07
   44.2799988      -2.08927167E-06
   44.4000015      -3.14783529E-06
   44.5200005      -4.08790493E-06
   44.6399994      -4.89738431E-06
   44.7599983      -5.57106659E-06
   44.8800011      -6.10945835E-06
   45.0000000      -6.51724849E-06
   45.1199989      -6.80158382E-06
   45.2400017      -6.97033556E-06
   45.3600006      -7.03055048E-06
   45.4799995      -6.98723852E-06
   45.5999985      -6.84264478E-06
   45.7200012      -6.59607304E-06
   45.8400002      -6.24429913E-06
   45.9599991      -5.78253230E-06
   46.0800018      -5.20582444E-06
   46.2000008      -4.51078358E-06
   46.3199997      -3.69739655E-06
   46.4399986      -2.77075469E-06
   46.5600014      -1.74246725E-06
   46.6800003      -6.31572846E-07
   46.7999992       5.35200456E-07
   46.9199982       1.72391685E-06
   47.0400009       2.89467539E-06
   47.1599998       4.00355884E-06
   47.2799988       5.00515762E-06
   47.4000015       5.85547969E-06
   47.5200005       6.51500204E-06
   47.6399994       6.95160816E-06
   47.7599983       7.14313819E-06
   47.8800011       7.07932804E-06
   48.0000000       6.76293666E-06
   48.1199989       6.20994979E-06
   48.2400017       5.44881641E-06
   48.3600006       4.51876849E-06
   48.4799995       3.46734805E-06
   48.5999985       2.34733761E-06
   48.7200012       1.21334574E-06
   48.8400002       1.18312620E-07
   48.9599991      -8.89782314E-07
   49.0800018      -1.77076345E-06
   49.2000008      -2.49444929E-06
   49.3199997      -3.04204696E-06
   49.4399986      -3.40668043E-06
   49.5600014      -3.59305318E-06
   49.6800003      -3.61631783E-06
   49.7999992      -3.50028040E-06
   49.9199982      -3.27510520E-06
   50.0400009      -2.97472207E-06
   50.1599998      -2.63412835E-06
   50.2799988      -2.28678914E-06
   50.4000015      -1.96230121E-06
   50.5200005      -1.68446365E-06
   50.6399994      -1.46985997E-06
   50.7599983      -1.32701712E-06
   50.8800011      -1.25616702E-06
   51.0000000      -1.24960343E-06
   51.1199989      -1.29258990E-06
   51.2400017      -1.36474955E-06
   51.3600006      -1.44184128E-06
   51.4799995      -1.49780419E-06
   51.5999985      -1.50693984E-06
   51.7200012      -1.44609112E-06
   51.8400002      -1.29666978E-06
   51.9599991      -1.04639309E-06
   52.0800018      -6.90604224E-07
   52.2000008      -2.33072825E-07
   52.3199997       3.13797045E-07
   52.4399986       9.29381940E-07
   52.5600014       1.58586636E-06
   52.6800003       2.24982841E-06
   52.7999992       2.88428396E-06
   52.9199982       3.45106059E-06
   53.0400009       3.91333697E-06
   53.1599998       4.23817892E-06
   53.2799988       4.39889163E-06
   53.4000015       4.37701783E-06
   53.5200005       4.16384410E-06
   53.6399994       3.76129969E-06
   53.7599983       3.18217326E-06
   53.8800011       2.44963258E-06
   54.0000000       1.59606327E-06
   54.1199989       6.61305592E-07
   54.2400017      -3.09599045E-07
   54.3600006      -1.26900306E-06
   54.4799995      -2.16941908E-06
   54.5999985      -2.96627877E-06
   54.7200012      -3.62050696E-06
   54.8400002      -4.10075472E-06
   54.9599991      -4.38515826E-06
   55.0800018      -4.46252125E-06
   55.2000008      -4.33287141E-06
   55.3199997      -4.00735962E-06
   55.4399986      -3.50752975E-06
   55.5600014      -2.86399995E-06
   55.6800003      -2.11465090E-06
   55.7999992      -1.30241301E-06
   55.9199982      -4.72782318E-07
   56.0400009       3.28804362E-07
   56.1599998       1.05959077E-06
   56.2799988       1.68198017E-06
   56.4000015       2.16573085E-06
   56.5200005       2.48973993E-06
   56.6399994       2.64330356E-06
   56.7599983       2.62676099E-06
   56.8800011       2.45145975E-06
   57.0000000       2.13901762E-06
   57.1199989       1.71989723E-06
   57.2400017       1.23135317E-06
   57.3600006       7.14864711E-07
   57.4799995       2.13207485E-07
   57.5999985      -2.32640957E-07
   57.7200012      -5.86540580E-07
   57.8400002      -8.19941420E-07
   57.9599991      -9.14123802E-07
   58.0800018      -8.61731110E-07
   58.2000008      -6.67445363E-07
   58.3199997      -3.47723187E-07
   58.4399986       7.04158154E-08
   58.5600014       5.51473136E-07
   58.6800003       1.05427500E-06
   58.7999992       1.53527276E-06
   58.9199982       1.95206849E-06
   59.0400009       2.26686416E-06
   59.1599998       2.44953458E-06
   59.2799988       2.48005540E-06
   59.4000015       2.35006701E-06
   59.5200005       2.06344271E-06
   59.6399994       1.63581160E-06
   59.7599983       1.09309724E-06
   59.8800011       4.69218776E-07
   60.0000000      -1.96819414E-07
   60.1199989      -8.64165997E-07
   60.2400017      -1.49338462E-06
   60.3600006      -2.04944286E-06
   60.4799995      -2.50416838E-06
   60.5999985      -2.83798204E-06
   60.7200012      -3.04078731E-06
   60.8400002      -3.11199915E-06
   60.9599991      -3.05976096E-06
   61.0800018      -2.89948525E-06
   61.2000008      -2.65189738E-06
   61.3199997      -2.34079744E-06
   61.4399986      -1.99075976E-06
   61.5600014      -1.62497793E-06
   61.6800003      -1.26343105E-06
   61.7999992      -9.21505318E-07
   61.9199982      -6.09151471E-07
   62.0400009      -3.30610732E-07
   62.1599998      -8.46910950E-08
   62.2799988       1.34464543E-07
   62.4000015       3.36211400E-07
   62.5200005       5.31951116E-07
   62.6399994       7.33523848E-07
   62.7599983       9.51575373E-07
   62.8800011       1.19402921E-06
   63.0000000       1.46478033E-06
   63.1199989       1.76271487E-06
   63.2400017       2.08114011E-06
   63.3600006       2.40768168E-06
   63.4799995       2.72468333E-06
   63.5999985       3.01010641E-06
   63.7200012       3.23889640E-06
   63.8400002       3.38474456E-06
   63.9599991       3.42214003E-06
   64.0800018       3.32857326E-06
   64.1999969       3.08672952E-06
   64.3199997       2.68649478E-06
   64.4400024       2.12659666E-06
   64.5599976       1.41571820E-06
   64.6800003       5.72948920E-07
   64.8000031      -3.72515331E-07
   64.9199982      -1.38245616E-06
   65.0400009      -2.41147086E-06
   65.1600037      -3.40946849E-06
   65.2799988      -4.32466504E-06
   65.4000015      -5.10686550E-06
   65.5199966      -5.71078817E-06
   65.6399994      -6.09917379E-06
   65.7600021      -6.24541963E-06
   65.8799973      -6.13552993E-06
   66.0000000      -5.76921457E-06
   66.1200027      -5.16005412E-06
   66.2399979      -4.33470859E-06
   66.3600006      -3.33125922E-06
   66.4800034      -2.19681419E-06
   66.5999985      -9.84588723E-07
   66.7200012       2.49312393E-07
   66.8399963       1.44916032E-06
   66.9599991       2.56268777E-06
   67.0800018       3.54379517E-06
   67.1999969       4.35472748E-06
   67.3199997       4.96762732E-06
   67.4400024       5.36541756E-06
   67.5599976       5.54203507E-06
   67.6800003       5.50204777E-06
   67.8000031       5.25975565E-06
   67.9199982       4.83786607E-06
   68.0400009       4.26585211E-06
   68.1600037       3.57810563E-06
   68.2799988       2.81198891E-06
   68.4000015       2.00588170E-06
   68.5199966       1.19730282E-06
   68.6399994       4.21181909E-07
   68.7600021      -2.91653407E-07
   68.8799973      -9.15725423E-07
   69.0000000      -1.43184297E-06
   69.1200027      -1.82769372E-06
   69.2399979      -2.09807035E-06
   69.3600006      -2.24472092E-06
   69.4800034      -2.27583519E-06
   69.5999985      -2.20519291E-06
   69.7200012      -2.05102333E-06
   69.8399963      -1.83464658E-06
   69.9599991      -1.57897989E-06
   70.0800018      -1.30700732E-06
   70.1999969      -1.04031426E-06
   70.3199997      -7.97784878E-07
   70.4400024      -5.94546236E-07
   70.5599976      -4.41223222E-07
   70.6800003      -3.43543917E-07
   70.8000031      -3.02301970E-07
   70.9199982      -3.13654510E-07
   71.0400009      -3.69707379E-07
   71.1600037      -4.59318244E-07
   71.2799988      -5.69037184E-07
   71.4000015      -6.84101224E-07
   71.5199966      -7.89407522E-07
   71.6399994      -8.70408428E-07
   71.7600021      -9.13890062E-07
   71.8799973      -9.08625054E-07
   72.0000000      -8.45906470E-07
   72.1200027      -7.19986645E-07
   72.2399979      -5.28446606E-07
   72.3600006      -2.72512750E-07
   72.4800034       4.26789057E-08
   72.5999985       4.07897460E-07
   72.7200012       8.09761161E-07