  -30.0000000       0.00000000    
  -29.8799992       0.00000000    
  -29.7600002       0.00000000    
  -29.6399994       2.12997367E-43
  -29.5200005       1.59607895E-42
  -29.3999996       6.92101312E-42
  -29.2800007       2.38781258E-41
  -29.1599998       5.67231605E-41
  -29.0400009       6.44317034E-41
  -28.9200001      -1.01781913E-40
  -28.7999992      -6.68296053E-40
  -28.6800003      -1.65090756E-39
  -28.5599995      -2.32493632E-39
  -28.4400005      -9.31717744E-40
  -28.3199997       4.50901132E-39
  -28.2000008       1.37757714E-38
  -28.0799999       2.13780875E-38
  -27.9599991       1.57328571E-38
  -27.8400002      -1.59188080E-38
  -27.7199993      -7.58088176E-38
  -27.6000004      -1.41418884E-37
  -27.4799995      -1.58045145E-37
  -27.3600006      -4.82088318E-38
  -27.2399998       2.56820655E-37
  -27.1200008       7.64205584E-37
  -27.0000000       1.34861242E-36
  -26.8799992       1.66949291E-36
  -26.7600002       1.10677871E-36
  -26.6399994      -1.18925945E-36
  -26.5200005      -5.94955688E-36
  -26.3999996      -1.29418054E-35
  -26.2800007      -1.96593581E-35
  -26.1599998      -2.01470950E-35
  -26.0400009      -5.33375504E-36
  -25.9200001       3.33723879E-35
  -25.7999992       9.63154957E-35
  -25.6800003       1.65416300E-34
  -25.5599995       1.97349132E-34
  -25.4400005       1.28986570E-34
  -25.3199997      -9.70591795E-35
  -25.2000008      -4.87092808E-34
  -25.0799999      -9.46133087E-34
  -24.9599991      -1.25311472E-33
  -24.8400002      -1.09732278E-33
  -24.7199993      -1.97340775E-34
  -24.6000004       1.51387684E-33
  -24.4799995       3.70445877E-33
  -24.3600006       5.56501066E-33
  -24.2399998       5.93975679E-33
  -24.1200008       3.71109591E-33
  -24.0000000      -1.62978967E-33
  -23.8799992      -9.41750091E-33
  -23.7600002      -1.75223390E-32
  -23.6399994      -2.25869991E-32
  -23.5200005      -2.09040027E-32
  -23.3999996      -9.81763331E-33
  -23.2800007       1.07196460E-32
  -23.1599998       3.69946322E-32
  -23.0400009       6.13843444E-32
  -22.9200001       7.36540016E-32
  -22.7999992       6.37842983E-32
  -22.6800003       2.58869188E-32
  -22.5599995      -3.78136079E-32
  -22.4400005      -1.14417013E-31
  -22.3199997      -1.80800623E-31
  -22.2000008      -2.08217031E-31
  -22.0799999      -1.71006769E-31
  -21.9599991      -5.77070866E-32
  -21.8400002       1.18889264E-31
  -21.7199993       3.17177246E-31
  -21.6000004       4.71664334E-31
  -21.4799995       5.09032688E-31
  -21.3600006       3.73148833E-31
  -21.2399998       5.25714928E-32
  -21.1200008      -3.98978299E-31
  -21.0000000      -8.59148697E-31
  -20.8799992      -1.15743509E-30
  -20.7600002      -1.12036197E-30
  -20.6399994      -6.34043691E-31
  -20.5200005       2.91265471E-31
  -20.3999996       1.47593528E-30
  -20.2800007       2.56799455E-30
  -20.1599998       3.10076846E-30
  -20.0400009       2.61697411E-30
  -19.9200001       8.44586767E-31
  -19.7999992      -2.11615653E-30
  -19.6800003      -5.65963027E-30
  -19.5599995      -8.67232863E-30
  -19.4400005      -9.72445663E-30
  -19.3199997      -7.47268041E-30
  -19.2000008      -1.21469539E-30
  -19.0799999       8.55175187E-30
  -18.9599991       1.97800273E-29
  -18.8400002       2.89600521E-29
  -18.7199993       3.17869351E-29
  -18.6000004       2.44002700E-29
  -18.4799995       4.96610026E-30
  -18.3600006      -2.48337878E-29
  -18.2399998      -5.89645300E-29
  -18.1200008      -8.73865856E-29
  -18.0000000      -9.79153858E-29
  -17.8799992      -7.95383187E-29
  -17.7600002      -2.66442267E-29
  -17.6399994       5.68786455E-29
  -17.5200005       1.55089493E-28
  -17.3999996       2.40478594E-28
  -17.2800007       2.78611767E-28
  -17.1599998       2.37147217E-28
  -17.0400009       9.80129522E-29
  -16.9200001      -1.30147822E-28
  -16.7999992      -4.03601201E-28
  -16.6800003      -6.44081336E-28
  -16.5599995      -7.52095673E-28
  -16.4400005      -6.33800963E-28
  -16.3199997      -2.37606888E-28
  -16.2000008       4.08650701E-28
  -16.0799999       1.17336203E-27
  -15.9600000       1.82414108E-27
  -15.8400002       2.06900035E-27
  -15.7200003       1.63738346E-27
  -15.6000004       3.89122999E-28
  -15.4799995      -1.57576468E-27
  -15.3599997      -3.84564029E-27
  -15.2399998      -5.70694643E-27
  -15.1199999      -6.26803222E-27
  -15.0000000      -4.70430152E-27
  -14.8800001      -5.91910494E-28
  -14.7600002       5.74950293E-27
  -14.6400003       1.30246821E-26
  -14.5200005       1.89768765E-26
  -14.3999996       2.07585958E-26
  -14.2799997       1.56922599E-26
  -14.1599998       2.32823707E-27
  -14.0400000      -1.84435803E-26
  -13.9200001      -4.26064730E-26
  -13.8000002      -6.29912335E-26
  -13.6800003      -7.03780901E-26
  -13.5600004      -5.58557586E-26
  -13.4399996      -1.41749754E-26
  -13.3199997       5.26432828E-26
  -13.1999998       1.32615961E-25
  -13.0799999       2.03403963E-25
  -12.9600000       2.35414879E-25
  -12.8400002       1.98914235E-25
  -12.7200003       7.44789527E-26
  -12.6000004      -1.35346936E-25
  -12.4799995      -3.96728873E-25
  -12.3599997      -6.41877630E-25
  -12.2399998      -7.77021434E-25
  -12.1199999      -7.03107928E-25
  -12.0000000      -3.47871216E-25
  -11.8800001       2.96646016E-25
  -11.7600002       1.14158813E-24
  -11.6400003       1.98729760E-24
  -11.5200005       2.54109374E-24
  -11.3999996       2.47518204E-24
  -11.2799997       1.52311094E-24
  -11.1599998      -4.00686539E-25
  -11.0400000      -3.08855887E-24
  -10.9200001      -5.97600277E-24
  -10.8000002      -8.17035151E-24
  -10.6800003      -8.60374696E-24
  -10.5600004      -6.31474241E-24
  -10.4399996      -8.21494552E-25
  -10.3199997       7.49775056E-24
  -10.1999998       1.71412201E-23
  -10.0799999       2.54777207E-23
  -9.96000004       2.91153856E-23
  -9.84000015       2.46894878E-23
  -9.72000027       9.99437148E-24
  -9.60000038      -1.47624117E-23
  -9.47999954      -4.59441363E-23
  -9.35999966      -7.61478407E-23
  -9.23999977      -9.49577872E-23
  -9.11999989      -9.10243564E-23
  -9.00000000      -5.53722737E-23
  -8.88000011       1.46016797E-23
  -8.76000023       1.11442733E-22
  -8.64000034       2.15601820E-22
  -8.52000046       2.96434718E-22
  -8.39999962       3.17243152E-22
  -8.27999973       2.44493238E-22
  -8.15999985       6.00567759E-23
  -8.03999996      -2.26155769E-22
  -7.92000008      -5.67068661E-22
  -7.80000019      -8.77278152E-22
  -7.67999983      -1.04368252E-21
  -7.55999994      -9.49610008E-22
  -7.44000006      -5.10568802E-22
  -7.32000017       2.84771567E-22
  -7.19999981       1.33916886E-21
  -7.07999992       2.43063166E-21
  -6.96000004       3.22889346E-21
  -6.84000015       3.35334416E-21
  -6.71999979       2.47186306E-21
  -6.59999990       4.26825499E-22
  -6.48000002      -2.63990714E-21
  -6.36000013      -6.20292038E-21
  -6.23999977      -9.35414207E-21
  -6.11999989      -1.09247464E-20
  -6.00000000      -9.74136680E-21
  -5.88000011      -4.99334362E-21
  -5.76000023       3.35710848E-21
  -5.63999987       1.42323937E-20
  -5.51999998       2.53010994E-20
  -5.40000010       3.31741205E-20
  -5.28000021       3.40164488E-20
  -5.15999985       2.45602332E-20
  -5.03999996       3.37278492E-21
  -4.92000008      -2.79088089E-20
  -4.80000019      -6.37773507E-20
  -4.67999983      -9.49259546E-20
  -4.55999994      -1.09539780E-19
  -4.44000006      -9.59286656E-20
  -4.32000017      -4.62523726E-20
  -4.19999981       3.93564910E-20
  -4.07999992       1.49389710E-19
  -3.96000004       2.59654398E-19
  -3.83999991       3.35372004E-19
  -3.72000003       3.37505691E-19
  -3.59999990       2.33178932E-19
  -3.48000002       8.71605058E-21
  -3.35999990      -3.17614013E-19
  -3.24000001      -6.87249053E-19
  -3.11999989      -1.00190453E-18
  -3.00000000      -1.13680765E-18
  -2.88000011      -9.68067876E-19
  -2.75999999      -4.11944475E-19
  -2.64000010       5.30869886E-19
  -2.51999998       1.73740209E-18
  -2.40000010       2.94551778E-18
  -2.27999997       3.77254082E-18
  -2.16000009       3.77951933E-18
  -2.03999996       2.58188464E-18
  -1.91999996      -6.47472313E-21
  -1.79999995      -3.82460605E-18
  -1.67999995      -8.25439397E-18
  -1.55999994      -1.21996236E-17
  -1.44000006      -1.42006761E-17
  -1.32000005      -1.27115086E-17
  -1.20000005      -6.52923022E-18
  -1.08000004       4.68297964E-18
 -0.959999979       1.98927210E-17
 -0.839999974       3.63726866E-17
 -0.720000029       4.97284077E-17
 -0.600000024       5.44306879E-17
 -0.479999989       4.49247581E-17
 -0.360000014       1.72536029E-17
 -0.239999995      -2.90430392E-17
 -0.119999997      -8.91771838E-17
  -1.11022302E-15  -1.52076931E-16
  0.119999997      -2.00682633E-16
  0.239999995      -2.14085619E-16
  0.360000014      -1.71726057E-16
  0.479999989      -5.93852020E-17
  0.600000024       1.23907659E-16
  0.720000029       3.59568742E-16
  0.839999974       6.05760641E-16
  0.959999979       7.98460055E-16
   1.08000004       8.59085432E-16
   1.20000005       7.09470561E-16
   1.32000005       2.93335318E-16
   1.44000006      -3.98697217E-16
   1.55999994      -1.30568043E-15
   1.67999995      -2.28142077E-15
   1.79999995      -3.09563056E-15
   1.91999996      -3.45772296E-15
   2.03999996      -3.06668554E-15
   2.16000009      -1.68516421E-15
   2.27999997       7.71123178E-16
   2.40000010       4.14512005E-15
   2.51999998       7.97431206E-15
   2.64000010       1.14771118E-14
   2.75999999       1.36142072E-14
   2.88000011       1.32405310E-14
   3.00000000       9.34734230E-15
   3.11999989       1.37141887E-15
   3.24000001      -1.04774291E-14
   3.35999990      -2.49433093E-14
   3.48000002      -3.95942061E-14
   3.59999990      -5.09241053E-14
   3.72000003      -5.47558282E-14
   3.83999991      -4.69682886E-14
   3.96000004      -2.45041617E-14
   4.07999992       1.34693468E-14
   4.19999981       6.44590379E-14
   4.32000017       1.21884016E-13
   4.44000006       1.74962814E-13
   4.55999994       2.09526827E-13
   4.67999983       2.09930922E-13
   4.80000019       1.62046754E-13
   4.92000008       5.70745504E-14
   5.03999996      -1.04372972E-13
   5.15999985      -3.08724482E-13
   5.28000021      -5.27430530E-13
   5.40000010      -7.17486183E-13
   5.51999998      -8.25326569E-13
   5.63999987      -7.94492402E-13
   5.76000023      -5.76794634E-13
   5.88000011      -1.45857976E-13
   6.00000000       4.88981360E-13
   6.11999989       1.27124212E-12
   6.23999977       2.09162158E-12
   6.36000013       2.79131796E-12
   6.48000002       3.17685808E-12
   6.59999990       3.04743101E-12
   6.71999979       2.23351871E-12
   6.84000015       6.42905488E-13
   6.96000004      -1.69266662E-12
   7.07999992      -4.57932347E-12
   7.19999981      -7.64186197E-12
   7.32000017      -1.03337642E-11
   7.44000006      -1.19843189E-11
   7.55999994      -1.18861067E-11
   7.67999983      -9.41940102E-12
   7.80000019      -4.20182812E-12
   7.92000008       3.75686938E-12
   8.03999996       1.39225281E-11
   8.15999985       2.51587345E-11
   8.27999973       3.57354493E-11
   8.39999962       4.34500318E-11
   8.52000046       4.58740858E-11
   8.64000034       4.07208919E-11
   8.76000023       2.63047865E-11
   8.88000011       2.03911714E-12
   9.00000000      -3.11036925E-11
   9.11999989      -7.02620948E-11
   9.23999977      -1.10582120E-10
   9.35999966      -1.45426504E-10
   9.47999954      -1.66953257E-10
   9.60000038      -1.67074354E-10
   9.72000027      -1.38744335E-10
   9.84000015      -7.74596429E-11
   9.96000004       1.72187091E-11
   10.0799999       1.40361556E-10
   10.1999998       2.80860946E-10
   10.3199997       4.21380070E-10
   10.4399996       5.39283507E-10
   10.5600004       6.08669171E-10
   10.6800003       6.03484762E-10
   10.8000002       5.01537478E-10
   10.9200001       2.89021418E-10
   11.0400000      -3.49895043E-11
   11.1599998      -4.54769056E-10
   11.2799997      -9.35635236E-10
   11.3999996      -1.42383516E-09
   11.5200005      -1.84919535E-09
   11.6400003      -2.13084861E-09
   11.7600002      -2.18599361E-09
   11.8800001      -1.94118988E-09
   12.0000000      -1.34523115E-09
   12.1199999      -3.82186949E-10
   12.2399998       9.17137200E-10
   12.3599997       2.46726284E-09
   12.4799995       4.12552481E-09
   12.6000004       5.69659298E-09
   12.7200003       6.94506852E-09
   12.8400002       7.61637420E-09
   12.9600000       7.46514139E-09
   13.0799999       6.28918428E-09
   13.1999998       3.96601951E-09
   13.3199997       4.87966112E-10
   13.4399996      -4.00881728E-09
   13.5600004      -9.22621979E-09
   13.6800003      -1.47015307E-08
   13.8000002      -1.98239132E-08
   13.9200001      -2.38721416E-08
   14.0400000      -2.60737387E-08
   14.1599998      -2.56832493E-08
   14.2799997      -2.20747953E-08
   14.3999996      -1.48415440E-08
   14.5200005      -3.89258181E-09
   14.6400003       1.04638529E-08
   14.7600002       2.74624430E-08
   14.8800001       4.58593554E-08
   15.0000000       6.39567546E-08
   15.1199999       7.96798147E-08
   15.2399998       9.07086743E-08
   15.3599997       9.46628234E-08
   15.4799995       8.93297880E-08
   15.6000004       7.29244718E-08
   15.7200003       4.43600783E-08
   15.8400002       3.50732843E-09
   15.9600000      -4.85842904E-08
   16.0799999      -1.09530447E-07
   16.2000008      -1.75546973E-07
   16.3199997      -2.41498441E-07
   16.4400005      -3.01076369E-07
   16.5599995      -3.47115616E-07
   16.6800003      -3.72046571E-07
   16.7999992      -3.68470751E-07
   16.9200001      -3.29835416E-07
   17.0400009      -2.51171855E-07
   17.1599998      -1.29853191E-07
   17.2800007       3.36808554E-08
   17.3999996       2.35287288E-07
   17.5200005       4.66628421E-07
   17.6399994       7.14878411E-07
   17.7600002       9.62673766E-07
   17.8799992       1.18834100E-06
   18.0000000       1.36642439E-06
   18.1200008       1.46851244E-06
   18.2399998       1.46435241E-06
   18.3600006       1.32321622E-06
   18.4799995       1.01546630E-06
   18.6000004       5.14255305E-07
   18.7199993      -2.02722376E-07
   18.8400002      -1.15151602E-06
   18.9599991      -2.34033337E-06
   19.0799999      -3.76817889E-06
   19.2000008      -5.42380258E-06
   19.3199997      -7.28503665E-06
   19.4400005      -9.31857903E-06
   19.5599995      -1.14802779E-05
   19.6800003      -1.37159213E-05
   19.7999992      -1.59625542E-05
   19.9200001      -1.81502710E-05
   20.0400009      -2.02044612E-05
   20.1599998      -2.20484035E-05
   20.2800007      -2.36061478E-05
   20.3999996      -2.48055367E-05
   20.5200005      -2.55812629E-05
   20.6399994      -2.58778200E-05
   20.7600002      -2.56522089E-05
   20.8799992      -2.48762608E-05
   21.0000000      -2.35384632E-05
   21.1200008      -2.16451681E-05
   21.2399998      -1.92211228E-05
   21.3600006      -1.63092463E-05
   21.4799995      -1.29696582E-05
   21.6000004      -9.27797282E-06
   21.7199993      -5.32289596E-06
   21.8400002      -1.20324455E-06
   21.9599991       2.97550218E-06
   22.0799999       7.10496624E-06
   22.2000008       1.10777873E-05
   22.3199997       1.47915098E-05
   22.4400005       1.81522719E-05
   22.5599995       2.10781200E-05
   22.6800003       2.35018360E-05
   22.7999992       2.53731141E-05
   22.9200001       2.66600382E-05
   23.0400009       2.73498117E-05
   23.1599998       2.74486974E-05
   23.2800007       2.69812372E-05
   23.3999996       2.59887784E-05
   23.5200005       2.45274059E-05
   23.6399994       2.26653974E-05
   23.7600002       2.04803000E-05
   23.8799992       1.80558181E-05
   24.0000000       1.54785630E-05
   24.1200008       1.28348875E-05
   24.2399998       1.02078639E-05
   24.3600006       7.67453639E-06
   24.4799995       5.30355192E-06
   24.6000004       3.15321427E-06
   24.7199993       1.27004239E-06
   24.8400002      -3.12162058E-07
   24.9599991      -1.57271222E-06
   25.0799999      -2.50392259E-06
   25.2000008      -3.11051213E-06
   25.3199997      -3.40857582E-06
   25.4400005      -3.42419139E-06
   25.5599995      -3.19173705E-06
   25.6800003      -2.75200387E-06
   25.7999992      -2.15018827E-06
   25.9200001      -1.43385364E-06
   26.0400009      -6.50939796E-07
   26.1599998       1.52109607E-07
   26.2800007       9.32037267E-07
   26.3999996       1.65023221E-06
   26.5200005       2.27392457E-06
   26.6399994       2.77709159E-06
   26.7600002       3.14106228E-06
   26.8799992       3.35482241E-06
   27.0000000       3.41502209E-06
   27.1200008       3.32570562E-06
   27.2399998       3.09777602E-06
   27.3600006       2.74822401E-06
   27.4799995       2.29914417E-06
   27.6000004       1.77657660E-06
   27.7199993       1.20920743E-06
   27.8400002       6.26978760E-07
   27.9599991       5.96550436E-08
   28.0799999      -4.64593455E-07
   28.2000008      -9.20529430E-07
   28.3199997      -1.28704687E-06
   28.4400005      -1.54816621E-06
   28.5599995      -1.69377256E-06
   28.6800003      -1.72005241E-06
   28.7999992      -1.62959861E-06
   28.9200001      -1.43117336E-06
   29.0400009      -1.13913552E-06
   29.1599998      -7.72564874E-07
   29.2800007      -3.54130947E-07
   29.3999996       9.12267240E-08
   29.5200005       5.37726123E-07
   29.6399994       9.60192438E-07
   29.7600002       1.33543983E-06
   29.8799992       1.64350433E-06
   30.0000000       1.86865418E-06
   30.1200008       2.00012369E-06
   30.2399998       2.03253740E-06
   30.3600006       1.96600604E-06
   30.4799995       1.80590962E-06
   30.6000004       1.56239162E-06
   30.7199993       1.24961173E-06
   30.8400002       8.84814597E-07
   30.9599991       4.87282250E-07
   31.0799999       7.72357396E-08
   31.2000008      -3.25245963E-07
   31.3199997      -7.01230647E-07
   31.4400005      -1.03381171E-06
   31.5599995      -1.30882506E-06
   31.6800003      -1.51537802E-06
   31.7999992      -1.64618450E-06
   31.9200001      -1.69770465E-06
   32.0400009      -1.67010649E-06
   32.1599998      -1.56706926E-06
   32.2799988      -1.39545557E-06
   32.4000015      -1.16488422E-06
   32.5200005      -8.87230726E-07
   32.6399994      -5.76086109E-07
   32.7599983      -2.46195100E-07
   32.8800011       8.71041621E-08
   33.0000000       4.08425791E-07
   33.1199989       7.02855971E-07
   33.2400017       9.56440090E-07
   33.3600006       1.15663158E-06
   33.4799995       1.29270120E-06
   33.5999985       1.35610037E-06
   33.7200012       1.34077652E-06
   33.8400002       1.24343296E-06
   33.9599991       1.06372454E-06
   34.0800018       8.04381273E-07
   34.2000008       4.71246352E-07
   34.3199997       7.32187644E-08
   34.4399986      -3.77911135E-07
   34.5600014      -8.67740027E-07
   34.6800003      -1.37964855E-06
   34.7999992      -1.89531511E-06
   34.9199982      -2.39533961E-06
   35.0400009      -2.85996134E-06
   35.1599998      -3.26984991E-06
   35.2799988      -3.60694116E-06
   35.4000015      -3.85527801E-06
   35.5200005      -4.00182125E-06
   35.6399994      -4.03717786E-06
   35.7599983      -3.95620964E-06
   35.8800011      -3.75846844E-06
   36.0000000      -3.44843011E-06
   36.1199989      -3.03548859E-06
   36.2400017      -2.53369740E-06
   36.3600006      -1.96125848E-06
   36.4799995      -1.33976607E-06
   36.5999985      -6.93248921E-07
   36.7200012      -4.70497099E-08
   36.8400002       5.73389514E-07
   36.9599991       1.14376803E-06
   37.0800018       1.64211724E-06
   37.2000008       2.04987009E-06
   37.3199997       2.35274479E-06
   37.4399986       2.54139172E-06
   37.5600014       2.61177001E-06
   37.6800003       2.56523799E-06
   37.7999992       2.40836084E-06
   37.9199982       2.15245473E-06
   38.0400009       1.81290250E-06
   38.1599998       1.40828809E-06
   38.2799988       9.59399358E-07
   38.4000015       4.88154740E-07
   38.5200005       1.65107377E-08
   38.6399994      -4.34599770E-07
   38.7599983      -8.46249407E-07
   38.8800011      -1.20237542E-06
   39.0000000      -1.49047980E-06
   39.1199989      -1.70213946E-06
   39.2400017      -1.83330098E-06
   39.3600006      -1.88434524E-06
   39.4799995      -1.85991235E-06
   39.5999985      -1.76848994E-06
   39.7200012      -1.62177957E-06
   39.8400002      -1.43386831E-06
   39.9599991      -1.22025131E-06
   40.0800018      -9.96756512E-07
   40.2000008      -7.78443507E-07
   40.3199997      -5.78547827E-07
   40.4399986      -4.07550715E-07
   40.5600014      -2.72445817E-07
   40.6800003      -1.76266909E-07
   40.7999992      -1.17922397E-07
   40.9199982      -9.23608070E-08
   41.0400009      -9.10648055E-08
   41.1599998      -1.02844268E-07
   41.2799988      -1.14871838E-07
   41.4000015      -1.13881114E-07
   41.5200005      -8.74301733E-08
   41.6399994      -2.51232777E-08
   41.7599983       8.03160987E-08
   41.8800011       2.32218781E-07
   42.0000000       4.29468002E-07
   42.1199989       6.66373182E-07
   42.2400017       9.32938292E-07
   42.3600006       1.21550750E-06
   42.4799995       1.49773712E-06
   42.5999985       1.76181265E-06
   42.7200012       1.98980842E-06
   42.8400002       2.16507442E-06
   42.9599991       2.27353462E-06
   43.0800018       2.30478759E-06
   43.2000008       2.25292570E-06
   43.3199997       2.11700785E-06
   43.4399986       1.90116009E-06
   43.5600014       1.61429784E-06
   43.6800003       1.26950806E-06
   43.7999992       8.83141695E-07
   43.9199982       4.73692808E-07
   44.0400009       6.05496027E-08
   44.1599998      -3.37292903E-07
   44.2799988      -7.02468867E-07
   44.4000015      -1.02034517E-06
   44.5200005      -1.27992155E-06
   44.6399994      -1.47447076E-06
   44.7599983      -1.60187460E-06
   44.8800011      -1.66463485E-06
   45.0000000      -1.66955135E-06
   45.1199989      -1.62708113E-06
   45.2400017      -1.55041448E-06
   45.3600006      -1.45432182E-06
   45.4799995      -1.35384551E-06
   45.5999985      -1.26293037E-06
   45.7200012      -1.19309345E-06
   45.8400002      -1.15224714E-06
   45.9599991      -1.14378122E-06
   46.0800018      -1.16600245E-06
   46.2000008      -1.21200571E-06
   46.3199997      -1.27002295E-06
   46.4399986      -1.32425350E-06
   46.5600014      -1.35614152E-06
   46.6800003      -1.34601692E-06
   46.7999992      -1.27497867E-06
   46.9199982      -1.12686701E-06
   47.0400009      -8.90151341E-07
   47.1599998      -5.59553087E-07
   47.2799988      -1.37240335E-07
   47.4000015       3.66544128E-07
   47.5200005       9.33514229E-07
   47.6399994       1.53806855E-06
   47.7599983       2.14869283E-06
   47.8800011       2.72995158E-06
   48.0000000       3.24492726E-06
   48.1199989       3.65792198E-06
   48.2400017       3.93720211E-06
   48.3600006       4.05755873E-06
   48.4799995       4.00246699E-06
   48.5999985       3.76564708E-06
   48.7200012       3.35189407E-06
   48.8400002       2.77708000E-06
   48.9599991       2.06732852E-06
   49.0800018       1.25741030E-06
   49.2000008       3.88486313E-07
   49.3199997      -4.94620679E-07
   49.4399986      -1.34640743E-06
   49.5600014      -2.12368650E-06
   49.6800003      -2.78835910E-06
   49.7999992      -3.30975308E-06
   49.9199982      -3.66635209E-06
   50.0400009      -3.84680243E-06
   50.1599998      -3.85015028E-06
   50.2799988      -3.68532278E-06
   50.4000015      -3.36994435E-06
   50.5200005      -2.92861910E-06
   50.6399994      -2.39086330E-06
   50.7599983      -1.78887808E-06
   50.8800011      -1.15536329E-06
   51.0000000      -5.21547861E-07
   51.1199989       8.44295371E-08
   51.2400017       6.38696349E-07
   51.3600006       1.12234864E-06
   51.4799995       1.52170207E-06
   51.5999985       1.82815609E-06
   51.7200012       2.03777449E-06
   51.8400002       2.15069645E-06
   51.9599991       2.17048841E-06
   52.0800018       2.10353414E-06
   52.2000008       1.95852317E-06
   52.3199997       1.74606089E-06
   52.4399986       1.47838841E-06
   52.5600014       1.16916351E-06
   52.6800003       8.33238573E-07
   52.7999992       4.86362467E-07
   52.9199982       1.44747617E-07
   53.0400009      -1.75534879E-07
   53.1599998      -4.59331545E-07
   53.2799988      -6.93314462E-07
   53.4000015      -8.66944276E-07
   53.5200005      -9.73381134E-07
   53.6399994      -1.01022192E-06
   53.7599983      -9.79943934E-07
   53.8800011      -8.89957334E-07
   54.0000000      -7.52202936E-07
   54.1199989      -5.82286361E-07
   54.2400017      -3.98192242E-07
   54.3600006      -2.18679958E-07
   54.4799995      -6.15097022E-08
   54.5999985       5.83207154E-08
   54.7200012       1.30134879E-07
   54.8400002       1.48748839E-07
   54.9599991       1.15103852E-07
   55.0800018       3.62615040E-08
   55.2000008      -7.52702434E-08
   55.3199997      -2.02838564E-07
   55.4399986      -3.27459304E-07
   55.5600014      -4.29962881E-07
   55.6800003      -4.93246489E-07
   55.7999992      -5.04383138E-07
   55.9199982      -4.56342434E-07
   56.0400009      -3.49109627E-07
   56.1599998      -1.90050628E-07
   56.2799988       6.55300658E-09
   56.4000015       2.20780990E-07
   56.5200005       4.29054040E-07
   56.6399994       6.06621313E-07
   56.7599983       7.30298041E-07
   56.8800011       7.81157382E-07
   57.0000000       7.46877220E-07
   57.1199989       6.23474477E-07
   57.2400017       4.16217603E-07
   57.3600006       1.39595471E-07
   57.4799995      -1.83679617E-07
   57.5999985      -5.24553911E-07
   57.7200012      -8.50223614E-07
   57.8400002      -1.12718340E-06
   57.9599991      -1.32443120E-06
   58.0800018      -1.41651230E-06
   58.2000008      -1.38610108E-06
   58.3199997      -1.22586857E-06
   58.4399986      -9.39456754E-07
   58.5600014      -5.41470683E-07
   58.6800003      -5.64976794E-08
   58.7999992       4.82743474E-07
   58.9199982       1.03794207E-06
   59.0400009       1.56818135E-06
   59.1599998       2.03310015E-06
   59.2799988       2.39595397E-06
   59.4000015       2.62632420E-06
   59.5200005       2.70226860E-06
   59.6399994       2.61177433E-06
   59.7599983       2.35343418E-06
   59.8800011       1.93634969E-06
   60.0000000       1.37931784E-06
   60.1199989       7.09415303E-07
   60.2400017      -3.98720310E-08
   60.3600006      -8.30809540E-07
   60.4799995      -1.62369724E-06
   60.5999985      -2.37912309E-06
   60.7200012      -3.06005586E-06
   60.8400002      -3.63367735E-06
   60.9599991      -4.07288553E-06
   61.0800018      -4.35742641E-06
   61.2000008      -4.47464208E-06
   61.3199997      -4.41983548E-06
   61.4399986      -4.19626076E-06
   61.5600014      -3.81476821E-06
   61.6800003      -3.29312161E-06
   61.7999992      -2.65502126E-06
   61.9199982      -1.92886932E-06
   62.0400009      -1.14632428E-06
   62.1599998      -3.40706691E-07
   62.2799988       4.54673653E-07
   62.4000015       1.20817970E-06
   62.5200005       1.89140360E-06
   62.6399994       2.48052083E-06
   62.7599983       2.95735117E-06
   62.8800011       3.31005413E-06
   63.0000000       3.53340511E-06
   63.1199989       3.62863898E-06
   63.2400017       3.60287277E-06
   63.3600006       3.46816341E-06
   63.4799995       3.24028724E-06
   63.5999985       2.93734729E-06
   63.7200012       2.57834290E-06
   63.8400002       2.18182072E-06
   63.9599991       1.76473634E-06
   64.0800018       1.34161269E-06
   64.1999969       9.24061055E-07
   64.3199997       5.20679066E-07
   64.4400024       1.37302962E-07
   64.5599976      -2.22454659E-07
   64.6800003      -5.56479222E-07
   64.8000031      -8.63358423E-07
   64.9199982      -1.14163674E-06
   65.0400009      -1.38922894E-06
   65.1600037      -1.60307241E-06
   65.2799988      -1.77906429E-06
   65.4000015      -1.91228401E-06
   65.5199966      -1.99746364E-06
   65.6399994      -2.02963361E-06
   65.7600021      -2.00484692E-06
   65.8799973      -1.92087896E-06
   66.0000000      -1.77779896E-06
   66.1200027      -1.57833097E-06
   66.2399979      -1.32795196E-06
   66.3600006      -1.03470313E-06
   66.4800034      -7.08735058E-07
   66.5999985      -3.61633028E-07
   66.7200012      -5.60451774E-09
   66.8399963       3.47381132E-07
   66.9599991       6.86399005E-07
   67.0800018       1.00223076E-06
   67.1999969       1.28780903E-06
   67.3199997       1.53839915E-06
   67.4400024       1.75150421E-06
   67.5599976       1.92651441E-06
   67.6800003       2.06415257E-06
   67.8000031       2.16578997E-06
   67.9199982       2.23272923E-06
   68.0400009       2.26554539E-06
   68.1600037       2.26358702E-06
   68.2799988       2.22470567E-06
   68.4000015       2.14527222E-06
   68.5199966       2.02049637E-06
   68.6399994       1.84503870E-06
   68.7600021       1.61386174E-06
   68.8799973       1.32324021E-06
   69.0000000       9.71822260E-07
   69.1200027       5.61619629E-07
   69.2399979       9.88052875E-08
   69.3600006      -4.05796072E-07
   69.4800034      -9.36611229E-07
   69.5999985      -1.47366825E-06
   69.7200012      -1.99340525E-06
   69.8399963      -2.46990385E-06
   69.9599991      -2.87647390E-06
   70.0800018      -3.18747630E-06
   70.1999969      -3.38024893E-06
   70.3199997      -3.43697843E-06
   70.4400024      -3.34637184E-06
   70.5599976      -3.10497330E-06
   70.6800003      -2.71800900E-06
   70.8000031      -2.19966091E-06
   70.9199982      -1.57271290E-06
   71.0400009      -8.67556366E-07
   71.1600037      -1.20586378E-07
   71.2799988       6.27929523E-07
   71.4000015       1.33638309E-06
   71.5199966       1.96458973E-06
   71.6399994       2.47658681E-06
   71.7600021       2.84324824E-06
   71.8799973       3.04450168E-06
   72.0000000       3.07094638E-06
   72.1200027       2.92471350E-06
   72.2399979       2.61946411E-06
   72.3600006       2.17948514E-06
   72.4800034       1.63792834E-06
   72.5999985       1.03431000E-06
   72.7200012       4.11464612E-07