  -30.0000000       0.00000000    
  -29.8799992       0.00000000    
  -29.7600002       0.00000000    
  -29.6399994       2.59240216E-43
  -29.5200005       5.87144057E-43
  -29.3999996      -1.15326864E-42
  -29.2800007      -7.90752723E-42
  -29.1599998      -2.01506719E-41
  -29.0400009      -1.34804912E-41
  -28.9200001       1.09882819E-40
  -28.7999992       5.22074762E-40
  -28.6800003       1.19766317E-39
  -28.5599995       1.21202928E-39
  -28.4400005      -1.83495830E-39
  -28.3199997      -1.04829302E-38
  -28.2000008      -2.23355513E-38
  -28.0799999      -2.30722629E-38
  -27.9599991       1.33786589E-38
  -27.8400002       1.04365593E-37
  -27.7199993       2.15528291E-37
  -27.6000004       2.23854201E-37
  -27.4799995      -5.23600888E-38
  -27.3600006      -7.04752996E-37
  -27.2399998      -1.50293076E-36
  -27.1200008      -1.75816223E-36
  -27.0000000      -5.46139418E-37
  -26.8799992       2.57993154E-36
  -26.7600002       6.66227495E-36
  -26.6399994       8.96432537E-36
  -26.5200005       6.04043456E-36
  -26.3999996      -3.54557802E-36
  -26.2800007      -1.61310082E-35
  -26.1599998      -2.22450956E-35
  -26.0400009      -1.10773073E-35
  -25.9200001       1.96229023E-35
  -25.7999992       5.27940112E-35
  -25.6800003       4.96783370E-35
  -25.5599995      -3.45640310E-35
  -25.4400005      -2.14810802E-34
  -25.3199997      -4.31616776E-34
  -25.2000008      -5.26695075E-34
  -25.0799999      -2.73381254E-34
  -24.9599991       5.15633260E-34
  -24.8400002       1.81782377E-33
  -24.7199993       3.23412953E-33
  -24.6000004       3.93649989E-33
  -24.4799995       2.84440962E-33
  -24.3600006      -9.16639658E-34
  -24.2399998      -7.35220803E-33
  -24.1200008      -1.49743889E-32
  -24.0000000      -2.05859330E-32
  -23.8799992      -1.98424534E-32
  -23.7600002      -8.76348597E-33
  -23.6399994       1.40338920E-32
  -23.5200005       4.50978966E-32
  -23.3999996       7.50061904E-32
  -23.2800007       8.94690438E-32
  -23.1599998       7.33029285E-32
  -23.0400009       1.68535474E-32
  -22.9200001      -7.68982485E-32
  -22.7999992      -1.87447950E-31
  -22.6800003      -2.77298130E-31
  -22.5599995      -3.00084782E-31
  -22.4400005      -2.16041591E-31
  -22.3199997      -1.12342752E-32
  -22.2000008       2.86047711E-31
  -22.0799999       5.99682863E-31
  -21.9599991       8.17240818E-31
  -21.8400002       8.20157549E-31
  -21.7199993       5.27023676E-31
  -21.6000004      -6.25728750E-32
  -21.4799995      -8.40298187E-31
  -21.3600006      -1.59282061E-30
  -21.2399998      -2.04504457E-30
  -21.1200008      -1.93861381E-30
  -21.0000000      -1.12786661E-30
  -20.8799992       3.35159253E-31
  -20.7600002       2.15856329E-30
  -20.6399994       3.83710245E-30
  -20.5200005       4.75758788E-30
  -20.3999996       4.37070165E-30
  -20.2800007       2.39207496E-30
  -20.1599998      -1.02440863E-30
  -20.0400009      -5.20571190E-30
  -19.9200001      -9.02461657E-30
  -19.7999992      -1.11316697E-29
  -19.6800003      -1.03256319E-29
  -19.5599995      -5.97913791E-30
  -19.4400005       1.60540066E-30
  -19.3199997       1.10438255E-29
  -19.2000008       2.00205849E-29
  -19.0799999       2.57608899E-29
  -18.9599991       2.57420308E-29
  -18.8400002       1.84691190E-29
  -18.7199993       4.09445145E-30
  -18.6000004      -1.53181291E-29
  -18.4799995      -3.59938732E-29
  -18.3600006      -5.30969256E-29
  -18.2399998      -6.16946982E-29
  -18.1200008      -5.78305123E-29
  -18.0000000      -3.94909257E-29
  -17.8799992      -7.29831228E-30
  -17.7600002       3.51765838E-29
  -17.6399994       8.15337447E-29
  -17.5200005       1.23114506E-28
  -17.3999996       1.50021529E-28
  -17.2800007       1.52556245E-28
  -17.1599998       1.22996133E-28
  -17.0400009       5.75814354E-29
  -16.9200001      -4.14724398E-29
  -16.7999992      -1.64194375E-28
  -16.6800003      -2.91713242E-28
  -16.5599995      -3.96400944E-28
  -16.4400005      -4.44243475E-28
  -16.3199997      -4.00476693E-28
  -16.2000008      -2.39083186E-28
  -16.0799999       4.45363807E-29
  -15.9600000       4.20509229E-28
  -15.8400002       8.16188407E-28
  -15.7200003       1.11917503E-27
  -15.6000004       1.19737270E-27
  -15.4799995       9.37597201E-28
  -15.3599997       2.96891394E-28
  -15.2399998      -6.48145626E-28
  -15.1199999      -1.67569444E-27
  -15.0000000      -2.43947069E-27
  -14.8800001      -2.55041465E-27
  -14.7600002      -1.71526017E-27
  -14.6400003       9.80713139E-29
  -14.5200005       2.52455153E-27
  -14.3999996       4.76755907E-27
  -14.2799997       5.73133371E-27
  -14.1599998       4.34892700E-27
  -14.0400000       6.65070615E-29
  -13.9200001      -6.64139454E-27
  -13.8000002      -1.39301958E-26
  -13.6800003      -1.86569225E-26
  -13.5600004      -1.70584900E-26
  -13.4399996      -6.07693991E-27
  -13.3199997       1.48812015E-26
  -13.1999998       4.22662059E-26
  -13.0799999       6.75520945E-26
  -12.9600000       7.80798500E-26
  -12.8400002       6.01589640E-26
  -12.7200003       4.37992369E-27
  -12.6000004      -8.78660085E-26
  -12.4799995      -1.98725698E-25
  -12.3599997      -2.91934051E-25
  -12.2399998      -3.17464425E-25
  -12.1199999      -2.24539297E-25
  -12.0000000       1.77039908E-26
  -11.8800001       3.96109592E-25
  -11.7600002       8.33885339E-25
  -11.6400003       1.18590978E-24
  -11.5200005       1.25909014E-24
  -11.3999996       8.63379467E-25
  -11.2799997      -1.10107911E-25
  -11.1599998      -1.60011866E-24
  -11.0400000      -3.30472746E-24
  -10.9200001      -4.66712121E-24
  -10.8000002      -4.95393131E-24
  -10.6800003      -3.44574680E-24
  -10.5600004       2.73607506E-25
  -10.4399996       5.98784831E-24
  -10.3199997       1.25847619E-23
  -10.1999998       1.79953656E-23
  -10.0799999       1.94679417E-23
  -9.96000004       1.42517852E-23
  -9.84000015       6.49434671E-25
  -9.72000027      -2.07652298E-23
  -9.60000038      -4.61353657E-23
  -9.47999954      -6.80067583E-23
  -9.35999966      -7.61981890E-23
  -9.23999977      -6.01571001E-23
  -9.11999989      -1.27058955E-23
  -9.00000000       6.54808383E-23
  -8.88000011       1.61940522E-22
  -8.76000023       2.50761666E-22
  -8.64000034       2.94994447E-22
  -8.52000046       2.54369474E-22
  -8.39999962       9.82692360E-23
  -8.27999973      -1.78037084E-22
  -8.15999985      -5.38079221E-22
  -8.03999996      -8.95783794E-22
  -7.92000008      -1.12055387E-21
  -7.80000019      -1.06092810E-21
  -7.67999983      -5.87897416E-22
  -7.55999994       3.47463593E-22
  -7.44000006       1.65514670E-21
  -7.32000017       3.06626685E-21
  -7.19999981       4.13564538E-21
  -7.07999992       4.30753092E-21
  -6.96000004       3.05340294E-21
  -6.84000015       7.02662327E-23
  -6.71999979      -4.49886572E-21
  -6.59999990      -9.88726159E-21
  -6.48000002      -1.46520473E-20
  -6.36000013      -1.68274806E-20
  -6.23999977      -1.43339188E-20
  -6.11999989      -5.63019111E-21
  -6.00000000       9.49128845E-21
  -5.88000011       2.91647082E-20
  -5.76000023       4.90424496E-20
  -5.63999987       6.25176322E-20
  -5.51999998       6.18123056E-20
  -5.40000010       3.99919951E-20
  -5.28000021      -6.30982459E-21
  -5.15999985      -7.40119401E-20
  -5.03999996      -1.51422455E-19
  -4.92000008      -2.17847734E-19
  -4.80000019      -2.45954969E-19
  -4.67999983      -2.07443546E-19
  -4.55999994      -8.17734016E-20
  -4.44000006       1.33404316E-19
  -4.32000017       4.12657195E-19
  -4.19999981       6.97491772E-19
  -4.07999992       8.99111618E-19
  -3.96000004       9.12137748E-19
  -3.83999991       6.40114234E-19
  -3.72000003       3.02999716E-20
  -3.59999990      -8.88826971E-19
  -3.48000002      -1.97781614E-18
  -3.35999990      -2.97712311E-18
  -3.24000001      -3.53103427E-18
  -3.11999989      -3.25255523E-18
  -3.00000000      -1.82820398E-18
  -2.88000011       8.51031849E-19
  -2.75999999       4.56055153E-18
  -2.64000010       8.65488587E-18
  -2.51999998       1.20678769E-17
  -2.40000010       1.34399760E-17
  -2.27999997       1.13921084E-17
  -2.16000009       4.93041831E-18
  -2.03999996      -6.07960545E-18
  -1.91999996      -2.04790597E-17
  -1.79999995      -3.55676612E-17
  -1.67999995      -4.71977842E-17
  -1.55999994      -5.03350421E-17
  -1.44000006      -4.01287252E-17
  -1.32000005      -1.34067854E-17
  -1.20000005       2.96495876E-17
  -1.08000004       8.40544873E-17
 -0.959999979       1.39301874E-16
 -0.839999974       1.79910711E-16
 -0.720000029       1.87623198E-16
 -0.600000024       1.45350218E-16
 -0.479999989       4.25079051E-17
 -0.360000014      -1.19151013E-16
 -0.239999995      -3.20623808E-16
 -0.119999997      -5.23416228E-16
  -1.11022302E-15  -6.71725397E-16
  0.119999997      -7.00318900E-16
  0.239999995      -5.48353989E-16
  0.360000014      -1.77870090E-16
  0.479999989       4.06098829E-16
  0.600000024       1.13853394E-15
  0.720000029       1.88640865E-15
  0.839999974       2.45546699E-15
  0.959999979       2.61608561E-15
   1.08000004       2.14919808E-15
   1.20000005       9.08403131E-16
   1.32000005      -1.11139638E-15
   1.44000006      -3.71399976E-15
   1.55999994      -6.46952669E-15
   1.67999995      -8.72900825E-15
   1.79999995      -9.70092689E-15
   1.91999996      -8.59481790E-15
   2.03999996      -4.82210309E-15
   2.16000009       1.77384761E-15
   2.27999997       1.07044890E-14
   2.40000010       2.06992575E-14
   2.51999998       2.97084440E-14
   2.64000010       3.50988058E-14
   2.75999999       3.40678820E-14
   2.88000011       2.42595555E-14
   3.00000000       4.50839681E-15
   3.11999989      -2.44173578E-14
   3.24000001      -5.92518994E-14
   3.35999990      -9.40471659E-14
   3.48000002      -1.20550922E-13
   3.59999990      -1.29265413E-13
   3.72000003      -1.11188633E-13
   3.83999991      -6.00825542E-14
   3.96000004       2.50627274E-14
   4.07999992       1.37861605E-13
   4.19999981       2.63258870E-13
   4.32000017       3.77750457E-13
   4.44000006       4.51572699E-13
   4.55999994       4.53056402E-13
   4.67999983       3.54930197E-13
   4.80000019       1.41856999E-13
   4.92000008      -1.82020536E-13
   5.03999996      -5.87156029E-13
   5.15999985      -1.01611222E-12
   5.28000021      -1.38618121E-12
   5.40000010      -1.59823326E-12
   5.51999998      -1.55196017E-12
   5.63999987      -1.16638524E-12
   5.76000023      -4.03064274E-13
   5.88000011       7.11964071E-13
   6.00000000       2.07237179E-12
   6.11999989       3.48701710E-12
   6.23999977       4.69109387E-12
   6.36000013       5.37551037E-12
   6.48000002       5.23414125E-12
   6.59999990       4.02494271E-12
   6.71999979       1.63700921E-12
   6.84000015      -1.84780706E-12
   6.96000004      -6.11225523E-12
   7.07999992      -1.05937108E-11
   7.19999981      -1.45180586E-11
   7.32000017      -1.69833175E-11
   7.44000006      -1.70909988E-11
   7.55999994      -1.41136720E-11
   7.67999983      -7.67726334E-12
   7.80000019       2.07174772E-12
   7.92000008       1.43490367E-11
   8.03999996       2.76995718E-11
   8.15999985       4.00769903E-11
   8.27999973       4.90495040E-11
   8.39999962       5.21272400E-11
   8.52000046       4.71827924E-11
   8.64000034       3.29132693E-11
   8.76000023       9.27242571E-12
   8.88000011      -2.22100775E-11
   9.00000000      -5.83043822E-11
   9.11999989      -9.42180986E-11
   9.23999977      -1.24031951E-10
   9.35999966      -1.41425940E-10
   9.47999954      -1.40636558E-10
   9.60000038      -1.17532858E-10
   9.72000027      -7.06549472E-11
   9.84000015      -2.03159516E-12
   9.96000004       8.24062277E-11
   10.0799999       1.72968861E-10
   10.1999998       2.56997479E-10
   10.3199997       3.20297733E-10
   10.4399996       3.49106688E-10
   10.5600004       3.32370881E-10
   10.6800003       2.64018751E-10
   10.8000002       1.44849716E-10
   10.9200001      -1.63436799E-11
   11.0400000      -2.02749720E-10
   11.1599998      -3.90814464E-10
   11.2799997      -5.52849544E-10
   11.3999996      -6.60781208E-10
   11.5200005      -6.90625279E-10
   11.6400003      -6.27073837E-10
   11.7600002      -4.67445860E-10
   11.8800001      -2.24222946E-10
   12.0000000       7.45213752E-11
   12.1199999       3.87264165E-10
   12.2399998       6.63875122E-10
   12.3599997       8.52857063E-10
   12.4799995       9.10225562E-10
   12.6000004       8.08847433E-10
   12.7200003       5.46744205E-10
   12.8400002       1.52738072E-10
   12.9600000      -3.12079362E-10
   13.0799999      -7.58211050E-10
   13.1999998      -1.07748399E-09
   13.3199997      -1.15835808E-09
   13.4399996      -9.05575670E-10
   13.5600004      -2.61980770E-10
   13.6800003       7.70475350E-10
   13.8000002       2.11403739E-09
   13.9200001       3.60637098E-09
   14.0400000       5.00293096E-09
   14.1599998       5.99278538E-09
   14.2799997       6.22877971E-09
   14.3999996       5.37112577E-09
   14.5200005       3.14147108E-09
   14.6400003      -6.17551787E-10
   14.7600002      -5.88400351E-09
   14.8800001      -1.24075497E-08
   15.0000000      -1.96780388E-08
   15.1199999      -2.69197145E-08
   15.2399998      -3.31175478E-08
   15.3599997      -3.70796513E-08
   15.4799995      -3.75363456E-08
   15.6000004      -3.32724106E-08
   15.7200003      -2.32848141E-08
   15.8400002      -6.95390767E-09
   15.9600000       1.57873892E-08
   16.0799999       4.43046169E-08
   16.2000008       7.71524142E-08
   16.3199997       1.12023670E-07
   16.4400005       1.45773896E-07
   16.5599995       1.74533483E-07
   16.6800003       1.93914630E-07
   16.7999992       1.99312908E-07
   16.9200001       1.86295054E-07
   17.0400009       1.51056696E-07
   17.1599998       9.09254467E-08
   17.2800007       4.87763341E-09
   17.3999996      -1.05968262E-07
   17.5200005      -2.37922052E-07
   17.6399994      -3.84397538E-07
   17.7600002      -5.35732624E-07
   17.8799992      -6.79188190E-07
   18.0000000      -7.99151678E-07
   18.1200008      -8.77561433E-07
   18.2399998      -8.94554148E-07
   18.3600006      -8.29324335E-07
   18.4799995      -6.61169167E-07
   18.6000004      -3.70676730E-07
   18.7199993       5.89964593E-08
   18.8400002       6.40825476E-07
   18.9599991       1.38266910E-06
   19.0799999       2.28615272E-06
   19.2000008       3.34576043E-06
   19.3199997       4.54820702E-06
   19.4400005       5.87215709E-06
   19.5599995       7.28832947E-06
   19.6800003       8.76002196E-06
   19.7999992       1.02440617E-05
   19.9200001       1.16921483E-05
   20.0400009       1.30525577E-05
   20.1599998       1.42721365E-05
   20.2800007       1.52984921E-05
   20.3999996       1.60822838E-05
   20.5200005       1.65794845E-05
   20.6399994       1.67535127E-05
   20.7600002       1.65771144E-05
   20.8799992       1.60338823E-05
   21.0000000       1.51193535E-05
   21.1200008       1.38415799E-05
   21.2399998       1.22211804E-05
   21.3600006       1.02908398E-05
   21.4799995       8.09427911E-06
   21.6000004       5.68475434E-06
   21.7199993       3.12314842E-06
   21.8400002       4.75743946E-07
   21.9599991      -2.18820674E-06
   22.0799999      -4.79901564E-06
   22.2000008      -7.28907571E-06
   22.3199997      -9.59525732E-06
   22.4400005      -1.16610836E-05
   22.5599995      -1.34385991E-05
   22.6800003      -1.48898680E-05
   22.7999992      -1.59880492E-05
   22.9200001      -1.67180187E-05
   23.0400009      -1.70765452E-05
   23.1599998      -1.70719941E-05
   23.2800007      -1.67236249E-05
   23.3999996      -1.60605086E-05
   23.5200005      -1.51201075E-05
   23.6399994      -1.39466192E-05
   23.7600002      -1.25891111E-05
   23.8799992      -1.10995779E-05
   24.0000000      -9.53095150E-06
   24.1200008      -7.93519030E-06
   24.2399998      -6.36148025E-06
   24.3600006      -4.85464489E-06
   24.4799995      -3.45379931E-06
   24.6000004      -2.19130607E-06
   24.7199993      -1.09205087E-06
   24.8400002      -1.73056449E-07
   24.9599991       5.56570456E-07
   25.0799999       1.09537382E-06
   25.2000008       1.44899684E-06
   25.3199997       1.62938420E-06
   25.4400005       1.65378901E-06
   25.5599995       1.54363943E-06
   25.6800003       1.32332173E-06
   25.7999992       1.01894057E-06
   25.9200001       6.57107137E-07
   26.0400009       2.63809341E-07
   26.1599998      -1.36596512E-07
   26.2800007      -5.22235268E-07
   26.3999996      -8.74380135E-07
   26.5200005      -1.17792069E-06
   26.6399994      -1.42162833E-06
   26.7600002      -1.59822366E-06
   26.8799992      -1.70426176E-06
   27.0000000      -1.73985961E-06
   27.1200008      -1.70829628E-06
   27.2399998      -1.61552180E-06
   27.3600006      -1.46961338E-06
   27.4799995      -1.28021441E-06
   27.6000004      -1.05799052E-06
   27.7199993      -8.14129351E-07
   27.8400002      -5.59903810E-07
   27.9599991      -3.06305907E-07
   28.0799999      -6.37528004E-08
   28.2000008       1.58145497E-07
   28.3199997       3.50771472E-07
   28.4400005       5.06658751E-07
   28.5599995       6.19642663E-07
   28.6800003       6.85019188E-07
   28.7999992       6.99719465E-07
   28.9200001       6.62499019E-07
   29.0400009       5.74128592E-07
   29.1599998       4.37563301E-07
   29.2800007       2.58059032E-07
   29.3999996       4.31997833E-08
   29.5200005      -1.97198915E-07
   29.6399994      -4.51339616E-07
   29.7600002      -7.05862703E-07
   29.8799992      -9.46437012E-07
   30.0000000      -1.15850276E-06
   30.1200008      -1.32812943E-06
   30.2399998      -1.44293176E-06
   30.3600006      -1.49297307E-06
   30.4799995      -1.47158050E-06
   30.6000004      -1.37599284E-06
   30.7199993      -1.20777258E-06
   30.8400002      -9.72931275E-07
   30.9599991      -6.81740289E-07
   31.0799999      -3.48223296E-07
   31.2000008       1.06378399E-08
   31.3199997       3.75930625E-07
   31.4400005       7.27994120E-07
   31.5599995       1.04766457E-06
   31.6800003       1.31748561E-06
   31.7999992       1.52279097E-06
   31.9200001       1.65257859E-06
   32.0400009       1.70011958E-06
   32.1599998       1.66326777E-06
   32.2799988       1.54446525E-06
   32.4000015       1.35046730E-06
   32.5200005       1.09182815E-06
   32.6399994       7.82205973E-07
   32.7599983       4.37554974E-07
   32.8800011       7.52674794E-08
   33.0000000      -2.86676112E-07
   33.1199989      -6.30505156E-07
   33.2400017      -9.39375184E-07
   33.3600006      -1.19799108E-06
   33.4799995      -1.39313374E-06
   33.5999985      -1.51410086E-06
   33.7200012      -1.55307089E-06
   33.8400002      -1.50539915E-06
   33.9599991      -1.36984863E-06
   34.0800018      -1.14874695E-06
   34.2000008      -8.48055777E-07
   34.3199997      -4.77326353E-07
   34.4399986      -4.95157941E-08
   34.5600014       4.19359338E-07
   34.6800003       9.10749975E-07
   34.7999992       1.40428244E-06
   34.9199982       1.87863327E-06
   35.0400009       2.31253489E-06
   35.1599998       2.68586041E-06
   35.2799988       2.98071791E-06
   35.4000015       3.18247794E-06
   35.5200005       3.28065403E-06
   35.6399994       3.26956501E-06
   35.7599983       3.14872113E-06
   35.8800011       2.92289496E-06
   36.0000000       2.60186789E-06
   36.1199989       2.19986805E-06
   36.2400017       1.73473688E-06
   36.3600006       1.22689346E-06
   36.4799995       6.98169913E-07
   36.5999985       1.70607578E-07
   36.7200012      -3.34699706E-07
   36.8400002      -7.98639064E-07
   36.9599991      -1.20492507E-06
   37.0800018      -1.54071620E-06
   37.2000008      -1.79698134E-06
   37.3199997      -1.96861697E-06
   37.4399986      -2.05433844E-06
   37.5600014      -2.05638025E-06
   37.6800003      -1.98005296E-06
   37.7999992      -1.83320969E-06
   37.9199982      -1.62567017E-06
   38.0400009      -1.36864548E-06
   38.1599998      -1.07419714E-06
   38.2799988      -7.54753728E-07
   38.4000015      -4.22692011E-07
   38.5200005      -8.99866563E-08
   38.6399994       2.32082101E-07
   38.7599983       5.33172738E-07
   38.8800011       8.04092451E-07
   39.0000000       1.03698346E-06
   39.1199989       1.22549318E-06
   39.2400017       1.36492861E-06
   39.3600006       1.45239198E-06
   39.4799995       1.48688741E-06
   39.5999985       1.46938567E-06
   39.7200012       1.40283191E-06
   39.8400002       1.29208229E-06
   39.9599991       1.14375507E-06
   40.0800018       9.65991035E-07
   40.2000008       7.68120628E-07
   40.3199997       5.60242540E-07
   40.4399986       3.52729558E-07
   40.5600014       1.55681974E-07
   40.6800003      -2.16416591E-08
   40.7999992      -1.71382524E-07
   40.9199982      -2.87590126E-07
   41.0400009      -3.66642979E-07
   41.1599998      -4.07544718E-07
   41.2799988      -4.12065475E-07
   41.4000015      -3.84704634E-07
   41.5200005      -3.32465362E-07
   41.6399994      -2.64441923E-07
   41.7599983      -1.91236069E-07
   41.8800011      -1.24233267E-07
   42.0000000      -7.47815463E-08
   42.1199989      -5.33266160E-08
   42.2400017      -6.85635371E-08
   42.3600006      -1.26667530E-07
   42.4799995      -2.30664327E-07
   42.5999985      -3.79993168E-07
   42.7200012      -5.70303939E-07
   42.8400002      -7.93515198E-07
   42.9599991      -1.03814091E-06
   43.0800018      -1.28987676E-06
   43.2000008      -1.53241479E-06
   43.3199997      -1.74843967E-06
   43.4399986      -1.92074435E-06
   43.5600014      -2.03339027E-06
   43.6800003      -2.07283233E-06
   43.7999992      -2.02892647E-06
   43.9199982      -1.89574939E-06
   44.0400009      -1.67215853E-06
   44.1599998      -1.36205335E-06
   44.2799988      -9.74308591E-07
   44.4000015      -5.22378969E-07
   44.5200005      -2.36012916E-08
   44.6399994       5.01759246E-07
   44.7599983       1.03164928E-06
   44.8800011       1.54347174E-06
   45.0000000       2.01534590E-06
   45.1199989       2.42729038E-06
   45.2400017       2.76225364E-06
   45.3600006       3.00692318E-06
   45.4799995       3.15227157E-06
   45.5999985       3.19381797E-06
   45.7200012       3.13161308E-06
   45.8400002       2.96997109E-06
   45.9599991       2.71699400E-06
   46.0800018       2.38395137E-06
   46.2000008       1.98456792E-06
   46.3199997       1.53428743E-06
   46.4399986       1.04956223E-06
   46.5600014       5.47202490E-07
   46.6800003       4.38145804E-08
   46.7999992      -4.44669638E-07
   46.9199982      -9.03379032E-07
   47.0400009      -1.31882200E-06
   47.1599998      -1.67916210E-06
   47.2799988      -1.97447184E-06
   47.4000015      -2.19698063E-06
   47.5200005      -2.34132449E-06
   47.6399994      -2.40478744E-06
   47.7599983      -2.38751909E-06
   47.8800011      -2.29269290E-06
   48.0000000      -2.12656778E-06
   48.1199989      -1.89841523E-06
   48.2400017      -1.62027459E-06
   48.3600006      -1.30651415E-06
   48.4799995      -9.73194460E-07
   48.5999985      -6.37246842E-07
   48.7200012      -3.15512381E-07
   48.8400002      -2.36995756E-08
   48.9599991       2.24657285E-07
   49.0800018       4.19149870E-07
   49.2000008       5.53266204E-07
   49.3199997       6.24898064E-07
   49.4399986       6.36523907E-07
   49.5600014       5.95032589E-07
   49.6800003       5.11187409E-07
   49.7999992       3.98764456E-07
   49.9199982       2.73432363E-07
   50.0400009       1.51467091E-07
   50.1599998       4.84122005E-08
   50.2799988      -2.21984440E-08
   50.4000015      -4.99451431E-08
   50.5200005      -2.83601782E-08
   50.6399994       4.45681536E-08
   50.7599983       1.66261145E-07
   50.8800011       3.29786360E-07
   51.0000000       5.24433460E-07
   51.1199989       7.36570826E-07
   51.2400017       9.50700439E-07
   51.3600006       1.15062051E-06
   51.4799995       1.32059643E-06
   51.5999985       1.44645333E-06
   51.7200012       1.51650750E-06
   51.8400002       1.52228336E-06
   51.9599991       1.45897673E-06
   52.0800018       1.32565060E-06
   52.2000008       1.12517728E-06
   52.3199997       8.63952607E-07
   52.4399986       5.51428855E-07
   52.5600014       1.99522148E-07
   52.6800003      -1.78049987E-07
   52.7999992      -5.66444498E-07
   52.9199982      -9.50335391E-07
   53.0400009      -1.31449156E-06
   53.1599998      -1.64427115E-06
   53.2799988      -1.92603352E-06
   53.4000015      -2.14748275E-06
   53.5200005      -2.29796819E-06
   53.6399994      -2.36876963E-06
   53.7599983      -2.35339644E-06
   53.8800011      -2.24791302E-06
   54.0000000      -2.05129095E-06
   54.1199989      -1.76576805E-06
   54.2400017      -1.39717633E-06
   54.3600006      -9.55180326E-07
   54.4799995      -4.53364862E-07
   54.5999985       9.08882356E-08
   54.7200012       6.56786881E-07
   54.8400002       1.22080360E-06
   54.9599991       1.75763967E-06
   55.0800018       2.24144219E-06
   55.2000008       2.64720848E-06
   55.3199997       2.95228756E-06
   55.4399986       3.13786359E-06
   55.5600014       3.19030642E-06
   55.6800003       3.10227483E-06
   55.7999992       2.87347143E-06
   55.9199982       2.51098550E-06
   56.0400009       2.02917249E-06
   56.1599998       1.44907517E-06
   56.2799988       7.97411531E-07
   56.4000015       1.05192136E-07
   56.5200005      -5.93944321E-07
   56.6399994      -1.26557086E-06
   56.7599983      -1.87637329E-06
   56.8800011      -2.39599672E-06
   57.0000000      -2.79872802E-06
   57.1199989      -3.06492007E-06
   57.2400017      -3.18208299E-06
   57.3600006      -3.14558815E-06
   57.4799995      -2.95895074E-06
   57.5999985      -2.63368065E-06
   57.7200012      -2.18871583E-06
   57.8400002      -1.64945607E-06
   57.9599991      -1.04645153E-06
   58.0800018      -4.13792378E-07
   58.2000008       2.12726292E-07
   58.3199997       7.97585585E-07
   58.4399986       1.30758019E-06
   58.5600014       1.71381248E-06
   58.6800003       1.99353485E-06
   58.7999992       2.13172871E-06
   58.9199982       2.12230611E-06
   59.0400009       1.96882820E-06
   59.1599998       1.68464771E-06
   59.2799988       1.29241198E-06
   59.4000015       8.22894663E-07
   59.5200005       3.13178447E-07
   59.6399994      -1.95739929E-07
   59.7599983      -6.61789102E-07
   59.8800011      -1.04492131E-06
   60.0000000      -1.31023944E-06
   60.1199989      -1.43089528E-06
   60.2400017      -1.39050042E-06
   60.3600006      -1.18481182E-06
   60.4799995      -8.22505285E-07
   60.5999985      -3.24924741E-07
   60.7200012       2.75219634E-07
   60.8400002       9.36127492E-07
   60.9599991       1.60999218E-06
   61.0800018       2.24664041E-06
   61.2000008       2.79742130E-06
   61.3199997       3.21900370E-06
   61.4399986       3.47675200E-06
   61.5600014       3.54738359E-06
   61.6800003       3.42068029E-06
   61.7999992       3.10011887E-06
   61.9199982       2.60238426E-06
   62.0400009       1.95584335E-06
   62.1599998       1.19814013E-06
   62.2799988       3.73161555E-07
   62.4000015      -4.72332459E-07
   62.5200005      -1.29210605E-06
   62.6399994      -2.04357525E-06
   62.7599983      -2.69041766E-06
   62.8800011      -3.20448521E-06
   63.0000000      -3.56692135E-06
   63.1199989      -3.76847311E-06
   63.2400017      -3.80907204E-06
   63.3600006      -3.69681652E-06
   63.4799995      -3.44654018E-06
   63.5999985      -3.07815753E-06
   63.7200012      -2.61498258E-06
   63.8400002      -2.08216920E-06
   63.9599991      -1.50538858E-06
   64.0800018      -9.09793982E-07
   64.1999969      -3.19268395E-07
   64.3199997       2.44092035E-07
   64.4400024       7.60340640E-07
   64.5599976       1.21198025E-06
   64.6800003       1.58428088E-06
   64.8000031       1.86566785E-06
   64.9199982       2.04819185E-06
   65.0400009       2.12804571E-06
   65.1600037       2.10605231E-06
   65.2799988       1.98801717E-06
   65.4000015       1.78483390E-06
   65.5199966       1.51223333E-06
   65.6399994       1.19011281E-06
   65.7600021       8.41422946E-07
   65.8799973       4.90655509E-07
   66.0000000       1.62038958E-07
   66.1200027      -1.22402682E-07
   66.2399979      -3.44731660E-07
   66.3600006      -4.92714435E-07
   66.4800034      -5.60984461E-07
   66.5999985      -5.51599214E-07
   66.7200012      -4.73904123E-07
   66.8399963      -3.43689578E-07
   66.9599991      -1.81709822E-07
   67.0800018      -1.17039054E-08
   67.1999969       1.41882197E-07
   67.3199997       2.56238252E-07
   67.4400024       3.12356974E-07
   67.5599976       2.96807912E-07
   67.6800003       2.02946808E-07
   67.8000031       3.14575033E-08
   67.9199982      -2.09799978E-07
   68.0400009      -5.06584172E-07
   68.1600037      -8.39592360E-07
   68.2799988      -1.18614082E-06
   68.4000015      -1.52201494E-06
   68.5199966      -1.82330280E-06
   68.6399994      -2.06804930E-06
   68.7600021      -2.23761094E-06
   68.8799973      -2.31764693E-06
   69.0000000      -2.29872899E-06
   69.1200027      -2.17660977E-06
   69.2399979      -1.95220514E-06
   69.3600006      -1.63137315E-06
   69.4800034      -1.22456072E-06
   69.5999985      -7.46369437E-07
   69.7200012      -2.15066208E-07
   69.8399963       3.47970797E-07
   69.9599991       9.18902572E-07
   70.0800018       1.47222318E-06
   70.1999969       1.98174098E-06
   70.3199997       2.42177066E-06
   70.4400024       2.76852438E-06
   70.5599976       3.00164197E-06
   70.6800003       3.10576183E-06
   70.8000031       3.07197774E-06
   70.9199982       2.89901800E-06
   71.0400009       2.59397007E-06
   71.1600037       2.17239949E-06
   71.2799988       1.65776339E-06
   71.4000015       1.08008896E-06
   71.5199966       4.73969351E-07
   71.6399994      -1.23981735E-07
   71.7600021      -6.77997491E-07
   71.8799973      -1.15607600E-06
   72.0000000      -1.53264909E-06
   72.1200027      -1.79071390E-06
   72.2399979      -1.92318498E-06
   72.3600006      -1.93330516E-06
   72.4800034      -1.83405018E-06
   72.5999985      -1.64658002E-06
   72.7200012      -1.39789620E-06