  -30.0000000       0.00000000    
  -29.8799992       0.00000000    
  -29.7600002       0.00000000    
  -29.6399994       0.00000000    
  -29.5200005       0.00000000    
  -29.3999996       0.00000000    
  -29.2800007       0.00000000    
  -29.1599998      -3.33755142E-25
  -29.0400009      -3.36968325E-24
  -28.9200001      -1.56773736E-23
  -28.7999992      -3.80312619E-23
  -28.6800003      -7.42499471E-24
  -28.5599995       3.51855264E-22
  -28.4400005       1.72912898E-21
  -28.3199997       5.19317156E-21
  -28.2000008       1.12763781E-20
  -28.0799999       1.74190052E-20
  -27.9599991       1.38274258E-20
  -27.8400002      -1.98791841E-20
  -27.7199993      -1.11414598E-19
  -27.6000004      -2.77830762E-19
  -27.4799995      -4.87561501E-19
  -27.3600006      -6.09419836E-19
  -27.2399998      -3.76882745E-19
  -27.1200008       5.81260799E-19
  -27.0000000       2.58574240E-18
  -26.8799992       5.59847957E-18
  -26.7600002       8.81150673E-18
  -26.6399994       1.03025709E-17
  -26.5200005       7.04334283E-18
  -26.3999996      -4.41149359E-18
  -26.2800007      -2.63381173E-17
  -26.1599998      -5.74629401E-17
  -26.0400009      -9.03969576E-17
  -25.9200001      -1.10066810E-16
  -25.7999992      -9.47254084E-17
  -25.6800003      -2.10401776E-17
  -25.5599995       1.26117952E-16
  -25.4400005       3.40361211E-16
  -25.3199997       5.80630339E-16
  -25.2000008       7.64366079E-16
  -25.0799999       7.74406701E-16
  -24.9599991       4.85552531E-16
  -24.8400002      -1.88448724E-16
  -24.7199993      -1.23545843E-15
  -24.6000004      -2.49116096E-15
  -24.4799995      -3.61664010E-15
  -24.3600006      -4.13311675E-15
  -24.2399998      -3.52845296E-15
  -24.1200008      -1.42733691E-15
  -24.0000000       2.21207101E-15
  -23.8799992       6.93770890E-15
  -23.7600002       1.17516352E-14
  -23.6399994       1.52230218E-14
  -23.5200005       1.57804457E-14
  -23.3999996       1.21389715E-14
  -23.2800007       3.76124472E-15
  -23.1599998      -8.77960322E-15
  -23.0400009      -2.36581859E-14
  -22.9200001      -3.79483195E-14
  -22.7999992      -4.80630584E-14
  -22.6800003      -5.04046132E-14
  -22.5599995      -4.21014779E-14
  -22.4400005      -2.17100846E-14
  -22.3199997       1.02075932E-14
  -22.2000008       5.06807222E-14
  -22.0799999       9.41443782E-14
  -21.9599991       1.32560263E-13
  -21.8400002       1.56007572E-13
  -21.7199993       1.53958443E-13
  -21.6000004       1.17394918E-13
  -21.4799995       4.16967994E-14
  -21.3600006      -7.01633101E-14
  -21.2399998      -2.05035167E-13
  -21.1200008      -3.38850069E-13
  -21.0000000      -4.38905206E-13
  -20.8799992      -4.69767834E-13
  -20.7600002      -4.02292484E-13
  -20.6399994      -2.23889077E-13
  -20.5200005       5.29505266E-14
  -20.3999996       3.87210880E-13
  -20.2800007       7.13521256E-13
  -20.1599998       9.54458843E-13
  -20.0400009       1.03882647E-12
  -19.9200001       9.21280305E-13
  -19.7999992       5.97465220E-13
  -19.6800003       1.09541282E-13
  -19.5599995      -4.60338473E-13
  -19.4400005      -1.00722631E-12
  -19.3199997      -1.42635827E-12
  -19.2000008      -1.63520727E-12
  -19.0799999      -1.58863883E-12
  -18.9599991      -1.28417470E-12
  -18.8400002      -7.58275658E-13
  -18.7199993      -7.75259102E-14
  -18.6000004       6.70791222E-13
  -18.4799995       1.38625580E-12
  -18.3600006       1.96197464E-12
  -18.2399998       2.29399030E-12
  -18.1200008       2.29700699E-12
  -18.0000000       1.92652686E-12
  -17.8799992       1.20194599E-12
  -17.7600002       2.20518035E-13
  -17.6399994      -8.48454282E-13
  -17.5200005      -1.79464484E-12
  -17.3999996      -2.41858768E-12
  -17.2800007      -2.58958198E-12
  -17.1599998      -2.28874428E-12
  -17.0400009      -1.61867492E-12
  -16.9200001      -7.72312119E-13
  -16.7999992       3.03875035E-14
  -16.6800003       6.15109634E-13
  -16.5599995       9.06818837E-13
  -16.4400005       9.42602116E-13
  -16.3199997       8.38727579E-13
  -16.2000008       7.26927741E-13
  -16.0799999       6.89089356E-13
  -15.9600000       7.20950101E-13
  -15.8400002       7.42640975E-13
  -15.7200003       6.52193197E-13
  -15.6000004       3.97096581E-13
  -15.4799995       2.84644880E-14
  -15.3599997      -2.92327360E-13
  -15.2399998      -3.45183409E-13
  -15.1199999       5.38655627E-14
  -15.0000000       9.50083328E-13
  -14.8800001       2.18223443E-12
  -14.7600002       3.38229379E-12
  -14.6400003       4.05262672E-12
  -14.5200005       3.70370358E-12
  -14.3999996       2.01404952E-12
  -14.2799997      -1.03482576E-12
  -14.1599998      -5.09035739E-12
  -14.0400000      -9.45258021E-12
  -13.9200001      -1.31912970E-11
  -13.8000002      -1.53351880E-11
  -13.6800003      -1.50926199E-11
  -13.5600004      -1.20532490E-11
  -13.4399996      -6.31963449E-12
  -13.3199997       1.46960395E-12
  -13.1999998       1.02395870E-11
  -13.0799999       1.86846007E-11
  -12.9600000       2.55301284E-11
  -12.8400002       2.97816181E-11
  -12.7200003       3.08894750E-11
  -12.6000004       2.87835710E-11
  -12.4799995       2.37733652E-11
  -12.3599997       1.63580833E-11
  -12.2399998       7.02661800E-12
  -12.1199999      -3.86643148E-12
  -12.0000000      -1.60894006E-11
  -11.8800001      -2.93811087E-11
  -11.7600002      -4.32120416E-11
  -11.6400003      -5.65579319E-11
  -11.5200005      -6.77942841E-11
  -11.3999996      -7.47898063E-11
  -11.2799997      -7.52155629E-11
  -11.1599998      -6.70151920E-11
  -11.0400000      -4.89243368E-11
  -10.9200001      -2.09034665E-11
  -10.8000002       1.56348597E-11
  -10.6800003       5.78707290E-11
  -10.5600004       1.01888331E-10
  -10.4399996       1.43178955E-10
  -10.3199997       1.77212051E-10
  -10.1999998       1.99937497E-10
  -10.0799999       2.08107656E-10
  -9.96000004       1.99364067E-10
  -9.84000015       1.72105039E-10
  -9.72000027       1.25215407E-10
  -9.60000038       5.77779630E-11
  -9.47999954      -3.11151903E-11
  -9.35999966      -1.42374112E-10
  -9.23999977      -2.76734552E-10
  -9.11999989      -4.34452724E-10
  -9.00000000      -6.14978013E-10
  -8.88000011      -8.16720025E-10
  -8.76000023      -1.03699604E-09
  -8.64000034      -1.27218958E-09
  -8.52000046      -1.51809099E-09
  -8.39999962      -1.77034698E-09
  -8.27999973      -2.02493400E-09
  -8.15999985      -2.27857400E-09
  -8.03999996      -2.52904120E-09
  -7.92000008      -2.77531798E-09
  -7.80000019      -3.01757885E-09
  -7.67999983      -3.25698912E-09
  -7.55999994      -3.49532825E-09
  -7.44000006      -3.73448295E-09
  -7.32000017      -3.97591693E-09
  -7.19999981      -4.22027346E-09
  -7.07999992      -4.46727144E-09
  -6.96000004      -4.71604267E-09
  -6.84000015      -4.96593255E-09
  -6.71999979      -5.21764765E-09
  -6.59999990      -5.47449641E-09
  -6.48000002      -5.74335024E-09
  -6.36000013      -6.03496808E-09
  -6.23999977      -6.36343556E-09
  -6.11999989      -6.74467371E-09
  -6.00000000      -7.19423277E-09
  -5.88000011      -7.72480124E-09
  -5.76000023      -8.34400460E-09
  -5.63999987      -9.05303832E-09
  -5.51999998      -9.84649962E-09
  -5.40000010      -1.07135225E-08
  -5.28000021      -1.16399557E-08
  -5.15999985      -1.26111139E-08
  -5.03999996      -1.36144767E-08
  -4.92000008      -1.46417793E-08
  -4.80000019      -1.56901798E-08
  -4.67999983      -1.67624385E-08
  -4.55999994      -1.78663466E-08
  -4.44000006      -1.90137470E-08
  -4.32000017      -2.02195132E-08
  -4.19999981      -2.15006715E-08
  -4.07999992      -2.28757333E-08
  -3.96000004      -2.43641178E-08
  -3.83999991      -2.59855817E-08
  -3.72000003      -2.77595884E-08
  -3.59999990      -2.97046778E-08
  -3.48000002      -3.18379705E-08
  -3.35999990      -3.41748567E-08
  -3.24000001      -3.67288386E-08
  -3.11999989      -3.95112991E-08
  -3.00000000      -4.25311093E-08
  -2.88000011      -4.57939109E-08
  -2.75999999      -4.93013239E-08
  -2.64000010      -5.30504600E-08
  -2.51999998      -5.70342635E-08
  -2.40000010      -6.12430782E-08
  -2.27999997      -6.56673507E-08
  -2.16000009      -7.03011480E-08
  -2.03999996      -7.51454508E-08
  -1.91999996      -8.02104836E-08
  -1.79999995      -8.55162554E-08
  -1.67999995      -9.10911311E-08
  -1.55999994      -9.69687974E-08
  -1.44000006      -1.03184284E-07
  -1.32000005      -1.09770170E-07
  -1.20000005      -1.16753640E-07
  -1.08000004      -1.24155065E-07
 -0.959999979      -1.31988401E-07
 -0.839999974      -1.40263097E-07
 -0.720000029      -1.48987482E-07
 -0.600000024      -1.58172725E-07
 -0.479999989      -1.67836902E-07
 -0.360000014      -1.78007838E-07
 -0.239999995      -1.88724215E-07
 -0.119999997      -2.00033952E-07
  -1.11022302E-15  -2.11990155E-07
  0.119999997      -2.24645277E-07
  0.239999995      -2.38044848E-07
  0.360000014      -2.52222918E-07
  0.479999989      -2.67200306E-07
  0.600000024      -2.82986520E-07
  0.720000029      -2.99585082E-07
  0.839999974      -3.17000428E-07
  0.959999979      -3.35244692E-07
   1.08000004      -3.54342575E-07
   1.20000005      -3.74333013E-07
   1.32000005      -3.95267648E-07
   1.44000006      -4.17207048E-07
   1.55999994      -4.40215985E-07
   1.67999995      -4.64358976E-07
   1.79999995      -4.89697015E-07
   1.91999996      -5.16286320E-07
   2.03999996      -5.44178022E-07
   2.16000009      -5.73419413E-07
   2.27999997      -6.04055913E-07
   2.40000010      -6.36132881E-07
   2.51999998      -6.69698636E-07
   2.64000010      -7.04805757E-07
   2.75999999      -7.41512736E-07
   2.88000011      -7.79883976E-07
   3.00000000      -8.19988372E-07
   3.11999989      -8.61896865E-07
   3.24000001      -9.05679315E-07
   3.35999990      -9.51401034E-07
   3.48000002      -9.99121539E-07
   3.59999990      -1.04889341E-06
   3.72000003      -1.10076530E-06
   3.83999991      -1.15478565E-06
   3.96000004      -1.21100823E-06
   4.07999992      -1.26949794E-06
   4.19999981      -1.33033404E-06
   4.32000017      -1.39361111E-06
   4.44000006      -1.45943557E-06
   4.55999994      -1.52791927E-06
   4.67999983      -1.59916976E-06
   4.80000019      -1.67328221E-06
   4.92000008      -1.75033290E-06
   5.03999996      -1.83037810E-06
   5.15999985      -1.91345976E-06
   5.28000021      -1.99961414E-06
   5.40000010      -2.08888309E-06
   5.51999998      -2.18132345E-06
   5.63999987      -2.27701003E-06
   5.76000023      -2.37603354E-06
   5.88000011      -2.47849243E-06
   6.00000000      -2.58448426E-06
   6.11999989      -2.69409611E-06
   6.23999977      -2.80740301E-06
   6.36000013      -2.92447226E-06
   6.48000002      -3.04536889E-06
   6.59999990      -3.17016634E-06
   6.71999979      -3.29895283E-06
   6.84000015      -3.43183115E-06
   6.96000004      -3.56891655E-06
   7.07999992      -3.71032638E-06
   7.19999981      -3.85617568E-06
   7.32000017      -4.00656836E-06
   7.44000006      -4.16159719E-06
   7.55999994      -4.32134630E-06
   7.67999983      -4.48589344E-06
   7.80000019      -4.65531730E-06
   7.92000008      -4.82969745E-06
   8.03999996      -5.00911710E-06
   8.15999985      -5.19366313E-06
   8.27999973      -5.38342283E-06
   8.39999962      -5.57848580E-06
   8.52000046      -5.77894070E-06
   8.64000034      -5.98487350E-06
   8.76000023      -6.19636421E-06
   8.88000011      -6.41348515E-06
   9.00000000      -6.63629680E-06
   9.11999989      -6.86484964E-06
   9.23999977      -7.09918550E-06
   9.35999966      -7.33934257E-06
   9.47999954      -7.58536044E-06
   9.60000038      -7.83728137E-06
   9.72000027      -8.09515404E-06
   9.84000015      -8.35903211E-06
   9.96000004      -8.62896468E-06
   10.0799999      -8.90499996E-06
   10.1999998      -9.18717342E-06
   10.3199997      -9.47551325E-06
   10.4399996      -9.77003401E-06
   10.5600004      -1.00707439E-05
   10.6800003      -1.03776465E-05
   10.8000002      -1.06907419E-05
   10.9200001      -1.10100364E-05
   11.0400000      -1.13355363E-05
   11.1599998      -1.16672572E-05
   11.2799997      -1.20052209E-05
   11.3999996      -1.23494547E-05
   11.5200005      -1.26999857E-05
   11.6400003      -1.30568360E-05
   11.7600002      -1.34200118E-05
   11.8800001      -1.37894995E-05
   12.0000000      -1.41652654E-05
   12.1199999      -1.45472559E-05
   12.2399998      -1.49354028E-05
   12.3599997      -1.53296332E-05
   12.4799995      -1.57298728E-05
   12.6000004      -1.61360622E-05
   12.7200003      -1.65481397E-05
   12.8400002      -1.69660616E-05
   12.9600000      -1.73897843E-05
   13.0799999      -1.78192695E-05
   13.1999998      -1.82544809E-05
   13.3199997      -1.86953712E-05
   13.4399996      -1.91418803E-05
   13.5600004      -1.95939265E-05
   13.6800003      -2.00514078E-05
   13.8000002      -2.05141969E-05
   13.9200001      -2.09821392E-05
   14.0400000      -2.14550691E-05
   14.1599998      -2.19328140E-05
   14.2799997      -2.24151900E-05
   14.3999996      -2.29020206E-05
   14.5200005      -2.33931241E-05
   14.6400003      -2.38883131E-05
   14.7600002      -2.43873910E-05
   14.8800001      -2.48901415E-05
   15.0000000      -2.53963335E-05
   15.1199999      -2.59057269E-05
   15.2399998      -2.64180744E-05
   15.3599997      -2.69331194E-05
   15.4799995      -2.74506074E-05
   15.6000004      -2.79702635E-05
   15.7200003      -2.84918078E-05
   15.8400002      -2.90149364E-05
   15.9600000      -2.95393329E-05
   16.0799999      -3.00646479E-05
   16.2000008      -3.05905232E-05
   16.3199997      -3.11165786E-05
   16.4400005      -3.16424121E-05
   16.5599995      -3.21676089E-05
   16.6800003      -3.26917325E-05
   16.7999992      -3.32143136E-05
   16.9200001      -3.37348865E-05
   17.0400009      -3.42529456E-05
   17.1599998      -3.47679706E-05
   17.2800007      -3.52794123E-05
   17.3999996      -3.57866957E-05
   17.5200005      -3.62892242E-05
   17.6399994      -3.67863613E-05
   17.7600002      -3.72774375E-05
   17.8799992      -3.77617762E-05
   18.0000000      -3.82386716E-05
   18.1200008      -3.87074178E-05
   18.2399998      -3.91672911E-05
   18.3600006      -3.96175674E-05
   18.4799995      -4.00574936E-05
   18.6000004      -4.04862694E-05
   18.7199993      -4.09030508E-05
   18.8400002      -4.13069356E-05
   18.9599991      -4.16969597E-05
   19.0799999      -4.20721262E-05
   19.2000008      -4.24314094E-05
   19.3199997      -4.27737577E-05
   19.4400005      -4.30981054E-05
   19.5599995      -4.34033791E-05
   19.6800003      -4.36884584E-05
   19.7999992      -4.39521937E-05
   19.9200001      -4.41933698E-05
   20.0400009      -4.44107209E-05
   20.1599998      -4.46029117E-05
   20.2800007      -4.47685743E-05
   20.3999996      -4.49062973E-05
   20.5200005      -4.50146508E-05
   20.6399994      -4.50921725E-05
   20.7600002      -4.51373853E-05
   20.8799992      -4.51487867E-05
   21.0000000      -4.51248234E-05
   21.1200008      -4.50639200E-05
   21.2399998      -4.49644431E-05
   21.3600006      -4.48247156E-05
   21.4799995      -4.46429985E-05
   21.6000004      -4.44175057E-05
   21.7199993      -4.41463999E-05
   21.8400002      -4.38277966E-05
   21.9599991      -4.34597459E-05
   22.0799999      -4.30402506E-05
   22.2000008      -4.25672770E-05
   22.3199997      -4.20387623E-05
   22.4400005      -4.14526257E-05
   22.5599995      -4.08067863E-05
   22.6800003      -4.00991521E-05
   22.7999992      -3.93275986E-05
   22.9200001      -3.84899686E-05
   23.0400009      -3.75840391E-05
   23.1599998      -3.66075255E-05
   23.2800007      -3.55580814E-05
   23.3999996      -3.44333348E-05
   23.5200005      -3.32308773E-05
   23.6399994      -3.19483115E-05
   23.7600002      -3.05832509E-05
   23.8799992      -2.91333126E-05
   24.0000000      -2.75961265E-05
   24.1200008      -2.59693061E-05
   24.2399998      -2.42504320E-05
   24.3600006      -2.24370542E-05
   24.4799995      -2.05266915E-05
   24.6000004      -1.85168446E-05
   24.7199993      -1.64050089E-05
   24.8400002      -1.41886821E-05
   24.9599991      -1.18653807E-05
   25.0799999      -9.43264058E-06
   25.2000008      -6.88801356E-06
   25.3199997      -4.22906396E-06
   25.4400005      -1.45336696E-06
   25.5599995       1.44147214E-06
   25.6800003       4.45782598E-06
   25.7999992       7.59802015E-06
   25.9200001       1.08643244E-05
   26.0400009       1.42589533E-05
   26.1599998       1.77840593E-05
   26.2800007       2.14417341E-05
   26.3999996       2.52340251E-05
   26.5200005       2.91629312E-05
   26.6399994       3.32304044E-05
   26.7600002       3.74383308E-05
   26.8799992       4.17885021E-05
   27.0000000       4.62826320E-05
   27.1200008       5.09223282E-05
   27.2399998       5.57090898E-05
   27.3600006       6.06443537E-05
   27.4799995       6.57294659E-05
   27.6000004       7.09656815E-05
   27.7199993       7.63541902E-05
   27.8400002       8.18960034E-05
   27.9599991       8.75920232E-05
   28.0799999       9.34429481E-05
   28.2000008       9.94492948E-05
   28.3199997       1.05611405E-04
   28.4400005       1.11929498E-04
   28.5599995       1.18403623E-04
   28.6800003       1.25033723E-04
   28.7999992       1.31819645E-04
   28.9200001       1.38761039E-04
   29.0400009       1.45857412E-04
   29.1599998       1.53108049E-04
   29.2800007       1.60512034E-04
   29.3999996       1.68068247E-04
   29.5200005       1.75775393E-04
   29.6399994       1.83631972E-04
   29.7600002       1.91636340E-04
   29.8799992       1.99786635E-04
   30.0000000       2.08080892E-04
   30.1200008       2.16516812E-04
   30.2399998       2.25091877E-04
   30.3600006       2.33803279E-04
   30.4799995       2.42647962E-04
   30.6000004       2.51622638E-04
   30.7199993       2.60723784E-04
   30.8400002       2.69947719E-04
   30.9599991       2.79290514E-04
   31.0799999       2.88748124E-04
   31.2000008       2.98316270E-04
   31.3199997       3.07990413E-04
   31.4400005       3.17765749E-04
   31.5599995       3.27637244E-04
   31.6800003       3.37599602E-04
   31.7999992       3.47647263E-04
   31.9200001       3.57774465E-04
   32.0400009       3.67975299E-04
   32.1599998       3.78243596E-04
   32.2799988       3.88573011E-04
   32.4000015       3.98956880E-04
   32.5200005       4.09388304E-04
   32.6399994       4.19860182E-04
   32.7599983       4.30365093E-04
   32.8800011       4.40895587E-04
   33.0000000       4.51444008E-04
   33.1199989       4.62002441E-04
   33.2400017       4.72562970E-04
   33.3600006       4.83117386E-04
   33.4799995       4.93657310E-04
   33.5999985       5.04174037E-04
   33.7200012       5.14658925E-04
   33.8400002       5.25102718E-04
   33.9599991       5.35496511E-04
   34.0800018       5.45830932E-04
   34.2000008       5.56096842E-04
   34.3199997       5.66284929E-04
   34.4399986       5.76385937E-04
   34.5600014       5.86390321E-04
   34.6800003       5.96288533E-04
   34.7999992       6.06070971E-04
   34.9199982       6.15727622E-04
   35.0400009       6.25248824E-04
   35.1599998       6.34624681E-04
   35.2799988       6.43845415E-04
   35.4000015       6.52901130E-04
   35.5200005       6.61782105E-04
   35.6399994       6.70478446E-04
   35.7599983       6.78980374E-04
   35.8800011       6.87278167E-04
   36.0000000       6.95362221E-04
   36.1199989       7.03222875E-04
   36.2400017       7.10850873E-04
   36.3600006       7.18237017E-04
   36.4799995       7.25372112E-04
   36.5999985       7.32247310E-04
   36.7200012       7.38853822E-04
   36.8400002       7.45182799E-04
   36.9599991       7.51225860E-04
   37.0800018       7.56974681E-04
   37.2000008       7.62421172E-04
   37.3199997       7.67557591E-04
   37.4399986       7.72376254E-04
   37.5600014       7.76870118E-04
   37.6800003       7.81032140E-04
   37.7999992       7.84855569E-04
   37.9199982       7.88334059E-04
   38.0400009       7.91461440E-04
   38.1599998       7.94231892E-04
   38.2799988       7.96640001E-04
   38.4000015       7.98680703E-04
   38.5200005       8.00349342E-04
   38.6399994       8.01641785E-04
   38.7599983       8.02554307E-04
   38.8800011       8.03083356E-04
   39.0000000       8.03226139E-04
   39.1199989       8.02979921E-04
   39.2400017       8.02342664E-04
   39.3600006       8.01312504E-04
   39.4799995       7.99888105E-04
   39.5999985       7.98068708E-04
   39.7200012       7.95853906E-04
   39.8400002       7.93243642E-04
   39.9599991       7.90238671E-04
   40.0800018       7.86839752E-04
   40.2000008       7.83048454E-04
   40.3199997       7.78866757E-04
   40.4399986       7.74297107E-04
   40.5600014       7.69342529E-04
   40.6800003       7.64006458E-04
   40.7999992       7.58292736E-04
   40.9199982       7.52205960E-04
   41.0400009       7.45751022E-04
   41.1599998       7.38933159E-04
   41.2799988       7.31758075E-04
   41.4000015       7.24231766E-04
   41.5200005       7.16360868E-04
   41.6399994       7.08152482E-04
   41.7599983       6.99613884E-04
   41.8800011       6.90753164E-04
   42.0000000       6.81578706E-04
   42.1199989       6.72099355E-04
   42.2400017       6.62324368E-04
   42.3600006       6.52263232E-04
   42.4799995       6.41925784E-04
   42.5999985       6.31322269E-04
   42.7200012       6.20463281E-04
   42.8400002       6.09359704E-04
   42.9599991       5.98022772E-04
   43.0800018       5.86464070E-04
   43.2000008       5.74695296E-04
   43.3199997       5.62728499E-04
   43.4399986       5.50575787E-04
   43.5600014       5.38249500E-04
   43.6800003       5.25762152E-04
   43.7999992       5.13126550E-04
   43.9199982       5.00355673E-04
   44.0400009       4.87462617E-04
   44.1599998       4.74460743E-04
   44.2799988       4.61363350E-04
   44.4000015       4.48183768E-04
   44.5200005       4.34935268E-04
   44.6399994       4.21631412E-04
   44.7599983       4.08285501E-04
   44.8800011       3.94911243E-04
   45.0000000       3.81522026E-04
   45.1199989       3.68131412E-04
   45.2400017       3.54752789E-04
   45.3600006       3.41399427E-04
   45.4799995       3.28084425E-04
   45.5999985       3.14820645E-04
   45.7200012       3.01620690E-04
   45.8400002       2.88496987E-04
   45.9599991       2.75461876E-04
   46.0800018       2.62527523E-04
   46.2000008       2.49705918E-04
   46.3199997       2.37008935E-04
   46.4399986       2.24448071E-04
   46.5600014       2.12034545E-04
   46.6800003       1.99779228E-04
   46.7999992       1.87692611E-04
   46.9199982       1.75784837E-04
   47.0400009       1.64065743E-04
   47.1599998       1.52544832E-04
   47.2799988       1.41231270E-04
   47.4000015       1.30133863E-04
   47.5200005       1.19260949E-04
   47.6399994       1.08620465E-04
   47.7599983       9.82199199E-05
   47.8800011       8.80663574E-05
   48.0000000       7.81664276E-05
   48.1199989       6.85263803E-05
   48.2400017       5.91520693E-05
   48.3600006       5.00488568E-05
   48.4799995       4.12216250E-05
   48.5999985       3.26747977E-05
   48.7200012       2.44122657E-05
   48.8400002       1.64374796E-05
   48.9599991       8.75341993E-06
   49.0800018       1.36267806E-06
   49.2000008      -5.73256921E-06
   49.3199997      -1.25305651E-05
   49.4399986      -1.90300270E-05
   49.5600014      -2.52301616E-05
   49.6800003      -3.11306649E-05
   49.7999992      -3.67317152E-05
   49.9199982      -4.20339347E-05
   50.0400009      -4.70383638E-05
   50.1599998      -5.17464359E-05
   50.2799988      -5.61599700E-05
   50.4000015      -6.02811670E-05
   50.5200005      -6.41126317E-05
   50.6399994      -6.76573836E-05
   50.7599983      -7.09188098E-05
   50.8800011      -7.39006136E-05
   51.0000000      -7.66068624E-05
   51.1199989      -7.90419217E-05
   51.2400017      -8.12104699E-05
   51.3600006      -8.31175057E-05
   51.4799995      -8.47683696E-05
   51.5999985      -8.61686931E-05
   51.7200012      -8.73243989E-05
   51.8400002      -8.82416789E-05
   51.9599991      -8.89269213E-05
   52.0800018      -8.93867109E-05
   52.2000008      -8.96277998E-05
   52.3199997      -8.96571291E-05
   52.4399986      -8.94817931E-05
   52.5600014      -8.91090458E-05
   52.6800003      -8.85462869E-05
   52.7999992      -8.78010178E-05
   52.9199982      -8.68808565E-05
   53.0400009      -8.57934792E-05
   53.1599998      -8.45467002E-05
   53.2799988      -8.31483776E-05
   53.4000015      -8.16064712E-05
   53.5200005      -7.99289483E-05
   53.6399994      -7.81238268E-05
   53.7599983      -7.61990887E-05
   53.8800011      -7.41626500E-05
   54.0000000      -7.20224270E-05
   54.1199989      -6.97862488E-05
   54.2400017      -6.74619150E-05
   54.3600006      -6.50572038E-05
   54.4799995      -6.25797911E-05
   54.5999985      -6.00372659E-05
   54.7200012      -5.74370861E-05
   54.8400002      -5.47865311E-05
   54.9599991      -5.20927424E-05
   55.0800018      -4.93627049E-05
   55.2000008      -4.66032870E-05
   55.3199997      -4.38212410E-05
   55.4399986      -4.10232096E-05
   55.5600014      -3.82156722E-05
   55.6800003      -3.54049444E-05
   55.7999992      -3.25971159E-05
   55.9199982      -2.97980496E-05
   56.0400009      -2.70133878E-05
   56.1599998      -2.42485694E-05
   56.2799988      -2.15088367E-05
   56.4000015      -1.87992373E-05
   56.5200005      -1.61246226E-05
   56.6399994      -1.34896009E-05
   56.7599983      -1.08985396E-05
   56.8800011      -8.35553965E-06
   57.0000000      -5.86445412E-06
   57.1199989      -3.42890712E-06
   57.2400017      -1.05231459E-06
   57.3600006       1.26210864E-06
   57.4799995       3.51135486E-06
   57.5999985       5.69264330E-06
   57.7200012       7.80343180E-06
   57.8400002       9.84143389E-06
   57.9599991       1.18046009E-05
   58.0800018       1.36911049E-05
   58.2000008       1.54993159E-05
   58.3199997       1.72277796E-05
   58.4399986       1.88752110E-05
   58.5600014       2.04405169E-05
   58.6800003       2.19228004E-05
   58.7999992       2.33213850E-05
   58.9199982       2.46358195E-05
   59.0400009       2.58658692E-05
   59.1599998       2.70115142E-05
   59.2799988       2.80729091E-05
   59.4000015       2.90503867E-05
   59.5200005       2.99444273E-05
   59.6399994       3.07556511E-05
   59.7599983       3.14848185E-05
   59.8800011       3.21328189E-05
   60.0000000       3.27006674E-05
   60.1199989       3.31895135E-05
   60.2400017       3.36006306E-05
   60.3600006       3.39354265E-05
   60.4799995       3.41953928E-05
   60.5999985       3.43821339E-05
   60.7200012       3.44973269E-05
   60.8400002       3.45427288E-05
   60.9599991       3.45201770E-05
   61.0800018       3.44315922E-05
   61.2000008       3.42790045E-05
   61.3199997       3.40645420E-05
   61.4399986       3.37904385E-05
   61.5600014       3.34589895E-05
   61.6800003       3.30725052E-05
   61.7999992       3.26332811E-05
   61.9199982       3.21435728E-05
   62.0400009       3.16056139E-05
   62.1599998       3.10216310E-05
   62.2799988       3.03938850E-05
   62.4000015       2.97247152E-05
   62.5200005       2.90165244E-05
   62.6399994       2.82717720E-05
   62.7599983       2.74929153E-05
   62.8800011       2.66823754E-05
   63.0000000       2.58425061E-05
   63.1199989       2.49755867E-05
   63.2400017       2.40838544E-05
   63.3600006       2.31695303E-05
   63.4799995       2.22348353E-05
   63.5999985       2.12819996E-05
   63.7200012       2.03132349E-05
   63.8400002       1.93307023E-05
   63.9599991       1.83364864E-05
   64.0800018       1.73325789E-05
   64.1999969       1.63208879E-05
   64.3199997       1.53032652E-05
   64.4400024       1.42815170E-05
   64.5599976       1.32574314E-05
   64.6800003       1.22327601E-05
   64.8000031       1.12092184E-05
   64.9199982       1.01884543E-05
   65.0400009       9.17204579E-06
   65.1600037       8.16149259E-06
   65.2799988       7.15822398E-06
   65.4000015       6.16360921E-06
   65.5199966       5.17895796E-06
   65.6399994       4.20551851E-06
   65.7600021       3.24447728E-06
   65.8799973       2.29695388E-06
   66.0000000       1.36399717E-06
   66.1200027       4.46590775E-07
   66.2399979      -4.54348623E-07
   66.3600006      -1.33797676E-06
   66.4800034      -2.20352877E-06
   66.5999985      -3.05032563E-06
   66.7200012      -3.87777027E-06
   66.8399963      -4.68533290E-06
   66.9599991      -5.47252512E-06
   67.0800018      -6.23886990E-06
   67.1999969      -6.98389340E-06
   67.3199997      -7.70713632E-06
   67.4400024      -8.40818302E-06
   67.5599976      -9.08670336E-06
   67.6800003      -9.74247723E-06
   67.8000031      -1.03753982E-05
   67.9199982      -1.09854473E-05
   68.0400009      -1.15726489E-05
   68.1600037      -1.21370249E-05
   68.2799988      -1.26785844E-05
   68.4000015      -1.31973284E-05
   68.5199966      -1.36932949E-05
   68.6399994      -1.41665932E-05
   68.7600021      -1.46174307E-05
   68.8799973      -1.50461074E-05
   69.0000000      -1.54529680E-05
   69.1200027      -1.58383555E-05
   69.2399979      -1.62025699E-05
   69.3600006      -1.65458623E-05
   69.4800034      -1.68684583E-05
   69.5999985      -1.71706197E-05
   69.7200012      -1.74526776E-05
   69.8399963      -1.77150760E-05
   69.9599991      -1.79583458E-05
   70.0800018      -1.81830692E-05
   70.1999969      -1.83898264E-05
   70.3199997      -1.85791614E-05
   70.4400024      -1.87515561E-05
   70.5599976      -1.89074599E-05
   70.6800003      -1.90473147E-05
   70.8000031      -1.91715972E-05
   70.9199982      -1.92808293E-05
   71.0400009      -1.93755750E-05
   71.1600037      -1.94564036E-05
   71.2799988      -1.95238790E-05
   71.4000015      -1.95785251E-05
   71.5199966      -1.96208366E-05
   71.6399994      -1.96512956E-05
   71.7600021      -1.96703968E-05
   71.8799973      -1.96786677E-05
   72.0000000      -1.96766850E-05
   72.1200027      -1.96650635E-05
   72.2399979      -1.96444198E-05
   72.3600006      -1.96153560E-05
   72.4800034      -1.95784269E-05
   72.5999985      -1.95341272E-05
   72.7200012      -1.94828917E-05