  -30.0000000       0.00000000    
  -29.8799992       0.00000000    
  -29.7600002       0.00000000    
  -29.6399994       1.82998557E-16
  -29.5200005       8.74104173E-16
  -29.3999996       2.00735310E-15
  -29.2800007       2.49828916E-15
  -29.1599998       4.13021285E-16
  -29.0400009      -5.54783075E-15
  -28.9200001      -1.38749892E-14
  -28.7999992      -1.89716051E-14
  -28.6800003      -1.21479517E-14
  -28.5599995       1.50866326E-14
  -28.4400005       6.66952658E-14
  -28.3199997       1.37899932E-13
  -28.2000008       2.10893531E-13
  -28.0799999       2.49863118E-13
  -27.9599991       1.97669680E-13
  -27.8400002      -1.74121090E-14
  -27.7199993      -4.52349828E-13
  -27.6000004      -1.09053912E-12
  -27.4799995      -1.76687668E-12
  -27.3600006      -2.11937195E-12
  -27.2399998      -1.63035373E-12
  -27.1200008       1.91688083E-13
  -27.0000000       3.49688811E-12
  -26.8799992       7.74565048E-12
  -26.7600002       1.15129312E-11
  -26.6399994       1.26503088E-11
  -26.5200005       8.91964454E-12
  -26.3999996      -9.86563912E-13
  -26.2800007      -1.63620176E-11
  -26.1599998      -3.38296891E-11
  -26.0400009      -4.75803771E-11
  -25.9200001      -5.07241298E-11
  -25.7999992      -3.75466151E-11
  -25.6800003      -6.02170440E-12
  -25.5599995       4.03278730E-11
  -25.4400005       9.20607687E-11
  -25.3199997       1.35361097E-10
  -25.2000008       1.55288365E-10
  -25.0799999       1.39913997E-10
  -24.9599991       8.41713366E-11
  -24.8400002      -7.71715417E-12
  -24.7199993      -1.21968532E-10
  -24.6000004      -2.37253633E-10
  -24.4799995      -3.28546745E-10
  -24.3600006      -3.71978809E-10
  -24.2399998      -3.49743623E-10
  -24.1200008      -2.54193555E-10
  -24.0000000      -9.04481073E-11
  -23.8799992       1.22963334E-10
  -23.7600002       3.55702023E-10
  -23.6399994       5.69488512E-10
  -23.5200005       7.23907378E-10
  -23.3999996       7.83371479E-10
  -23.2800007       7.24051152E-10
  -23.1599998       5.39358114E-10
  -23.0400009       2.42705522E-10
  -22.9200001      -1.33219477E-10
  -22.7999992      -5.40665401E-10
  -22.6800003      -9.23708499E-10
  -22.5599995      -1.22646737E-09
  -22.4400005      -1.40111045E-09
  -22.3199997      -1.41435919E-09
  -22.2000008      -1.25168842E-09
  -22.0799999      -9.18991272E-10
  -21.9599991      -4.41933268E-10
  -21.8400002       1.36538544E-10
  -21.7199993       7.60020658E-10
  -21.6000004       1.36341405E-09
  -21.4799995       1.87839300E-09
  -21.3600006       2.23950281E-09
  -21.2399998       2.39085862E-09
  -21.1200008       2.29328645E-09
  -21.0000000       1.93140282E-09
  -20.8799992       1.31959843E-09
  -20.7600002       5.05369357E-10
  -20.6399994      -4.31806063E-10
  -20.5200005      -1.38746725E-09
  -20.3999996      -2.24532015E-09
  -20.2800007      -2.89502688E-09
  -20.1599998      -3.25121152E-09
  -20.0400009      -3.26903127E-09
  -19.9200001      -2.95174285E-09
  -19.7999992      -2.34749287E-09
  -19.6800003      -1.53562296E-09
  -19.5599995      -6.06194150E-10
  -19.4400005       3.61141450E-10
  -19.3199997       1.31238032E-09
  -19.2000008       2.22393215E-09
  -19.0799999       3.09602655E-09
  -18.9599991       3.93790645E-09
  -18.8400002       4.75078998E-09
  -18.7199993       5.51506307E-09
  -18.6000004       6.18622398E-09
  -18.4799995       6.70063605E-09
  -18.3600006       6.98868252E-09
  -18.2399998       6.99088387E-09
  -18.1200008       6.67252786E-09
  -18.0000000       6.03396533E-09
  -17.8799992       5.11581932E-09
  -17.7600002       3.99962596E-09
  -17.6399994       2.80435231E-09
  -17.5200005       1.67820846E-09
  -17.3999996       7.84380227E-10
  -17.2800007       2.79982870E-10
  -17.1599998       2.90027169E-10
  -17.0400009       8.81664020E-10
  -16.9200001       2.04656270E-09
  -16.7999992       3.69897735E-09
  -16.6800003       5.69309666E-09
  -16.5599995       7.85655985E-09
  -16.4400005       1.00302628E-08
  -16.3199997       1.21009611E-08
  -16.2000008       1.40150194E-08
  -16.0799999       1.57687055E-08
  -15.9600000       1.73801791E-08
  -15.8400002       1.88563103E-08
  -15.7200003       2.01700576E-08
  -15.6000004       2.12594546E-08
  -15.4799995       2.20493526E-08
  -15.3599997       2.24861427E-08
  -15.2399998       2.25689121E-08
  -15.1199999       2.23615029E-08
  -15.0000000       2.19783427E-08
  -14.8800001       2.15491944E-08
  -14.7600002       2.11783640E-08
  -14.6400003       2.09171329E-08
  -14.5200005       2.07626751E-08
  -14.3999996       2.06845101E-08
  -14.2799997       2.06663522E-08
  -14.1599998       2.07432560E-08
  -14.0400000       2.10151700E-08
  -13.9200001       2.16281926E-08
  -13.8000002       2.27294201E-08
  -13.6800003       2.44137208E-08
  -13.5600004       2.66852727E-08
  -13.4399996       2.94510780E-08
  -13.3199997       3.25504139E-08
  -13.1999998       3.58091299E-08
  -13.0799999       3.90978094E-08
  -12.9600000       4.23717950E-08
  -12.8400002       4.56799043E-08
  -12.7200003       4.91421801E-08
  -12.6000004       5.29093533E-08
  -12.4799995       5.71226160E-08
  -12.3599997       6.18886915E-08
  -12.2399998       6.72755647E-08
  -12.1199999       7.33228731E-08
  -12.0000000       8.00542566E-08
  -11.8800001       8.74801316E-08
  -11.7600002       9.55872039E-08
  -11.6400003       1.04321664E-07
  -11.5200005       1.13579993E-07
  -11.3999996       1.23220460E-07
  -11.2799997       1.33099576E-07
  -11.1599998       1.43124311E-07
  -11.0400000       1.53300505E-07
  -10.9200001       1.63755004E-07
  -10.8000002       1.74717044E-07
  -10.6800003       1.86460838E-07
  -10.5600004       1.99227301E-07
  -10.4399996       2.13153740E-07
  -10.3199997       2.28238974E-07
  -10.1999998       2.44357807E-07
  -10.0799999       2.61319656E-07
  -9.96000004       2.78948590E-07
  -9.84000015       2.97153889E-07
  -9.72000027       3.15964684E-07
  -9.60000038       3.35518450E-07
  -9.47999954       3.56011213E-07
  -9.35999966       3.77633285E-07
  -9.23999977       4.00518360E-07
  -9.11999989       4.24725499E-07
  -9.00000000       4.50259023E-07
  -8.88000011       4.77114725E-07
  -8.76000023       5.05328330E-07
  -8.64000034       5.35004631E-07
  -8.52000046       5.66313076E-07
  -8.39999962       5.99453244E-07
  -8.27999973       6.34604760E-07
  -8.15999985       6.71885971E-07
  -8.03999996       7.11340022E-07
  -7.92000008       7.52955714E-07
  -7.80000019       7.96716733E-07
  -7.67999983       8.42655538E-07
  -7.55999994       8.90889226E-07
  -7.44000006       9.41619419E-07
  -7.32000017       9.95093615E-07
  -7.19999981       1.05154413E-06
  -7.07999992       1.11113070E-06
  -6.96000004       1.17391573E-06
  -6.84000015       1.23988741E-06
  -6.71999979       1.30902492E-06
  -6.59999990       1.38138046E-06
  -6.48000002       1.45714546E-06
  -6.36000013       1.53666792E-06
  -6.23999977       1.62041215E-06
  -6.11999989       1.70887370E-06
  -6.00000000       1.80248446E-06
  -5.88000011       1.90154799E-06
  -5.76000023       2.00623208E-06
  -5.63999987       2.11662518E-06
  -5.51999998       2.23282314E-06
  -5.40000010       2.35501716E-06
  -5.28000021       2.48353672E-06
  -5.15999985       2.61883520E-06
  -5.03999996       2.76142532E-06
  -4.92000008       2.91180413E-06
  -4.80000019       3.07039591E-06
  -4.67999983       3.23754807E-06
  -4.55999994       3.41358191E-06
  -4.44000006       3.59886371E-06
  -4.32000017       3.79386734E-06
  -4.19999981       3.99919236E-06
  -4.07999992       4.21552659E-06
  -3.96000004       4.44356920E-06
  -3.83999991       4.68395274E-06
  -3.72000003       4.93719699E-06
  -3.59999990       5.20372669E-06
  -3.48000002       5.48394291E-06
  -3.35999990       5.77832725E-06
  -3.24000001       6.08753362E-06
  -3.11999989       6.41242877E-06
  -3.00000000       6.75407728E-06
  -2.88000011       7.11366101E-06
  -2.75999999       7.49238552E-06
  -2.64000010       7.89139540E-06
  -2.51999998       8.31173384E-06
  -2.40000010       8.75435944E-06
  -2.27999997       9.22020990E-06
  -2.16000009       9.71027384E-06
  -2.03999996       1.02256508E-05
  -1.91999996       1.07675660E-05
  -1.79999995       1.13373480E-05
  -1.67999995       1.19363631E-05
  -1.55999994       1.25659835E-05
  -1.44000006       1.32275563E-05
  -1.32000005       1.39224312E-05
  -1.20000005       1.46520179E-05
  -1.08000004       1.54178597E-05
 -0.959999979       1.62216766E-05
 -0.839999974       1.70653511E-05
 -0.720000029       1.79508988E-05
 -0.600000024       1.88803679E-05
 -0.479999989       1.98558009E-05
 -0.360000014       2.08791953E-05
 -0.239999995       2.19525446E-05
 -0.119999997       2.30779151E-05
  -1.11022302E-15   2.42575079E-05
  0.119999997       2.54937204E-05
  0.239999995       2.67891191E-05
  0.360000014       2.81463726E-05
  0.479999989       2.95681621E-05
  0.600000024       3.10571013E-05
  0.720000029       3.26157315E-05
  0.839999974       3.42465682E-05
  0.959999979       3.59522201E-05
   1.08000004       3.77354845E-05
   1.20000005       3.95993993E-05
   1.32000005       4.15472423E-05
   1.44000006       4.35824513E-05
   1.55999994       4.57085043E-05
   1.67999995       4.79288719E-05
   1.79999995       5.02469484E-05
   1.91999996       5.26661133E-05
   2.03999996       5.51898011E-05
   2.16000009       5.78215622E-05
   2.27999997       6.05651840E-05
   2.40000010       6.34246462E-05
   2.51999998       6.64040926E-05
   2.64000010       6.95077397E-05
   2.75999999       7.27397564E-05
   2.88000011       7.61042465E-05
   3.00000000       7.96051900E-05
   3.11999989       8.32465157E-05
   3.24000001       8.70321892E-05
   3.35999990       9.09662558E-05
   3.48000002       9.50529138E-05
   3.59999990       9.92965142E-05
   3.72000003       1.03701517E-04
   3.83999991       1.08272448E-04
   3.96000004       1.13013841E-04
   4.07999992       1.17930227E-04
   4.19999981       1.23026111E-04
   4.32000017       1.28306056E-04
   4.44000006       1.33774622E-04
   4.55999994       1.39436423E-04
   4.67999983       1.45296086E-04
   4.80000019       1.51358108E-04
   4.92000008       1.57626913E-04
   5.03999996       1.64106808E-04
   5.15999985       1.70801912E-04
   5.28000021       1.77716283E-04
   5.40000010       1.84853925E-04
   5.51999998       1.92218868E-04
   5.63999987       1.99815084E-04
   5.76000023       2.07646532E-04
   5.88000011       2.15717053E-04
   6.00000000       2.24030286E-04
   6.11999989       2.32589664E-04
   6.23999977       2.41398462E-04
   6.36000013       2.50459736E-04
   6.48000002       2.59776541E-04
   6.59999990       2.69351731E-04
   6.71999979       2.79188127E-04
   6.84000015       2.89288466E-04
   6.96000004       2.99655163E-04
   7.07999992       3.10290401E-04
   7.19999981       3.21195985E-04
   7.32000017       3.32373456E-04
   7.44000006       3.43824067E-04
   7.55999994       3.55548720E-04
   7.67999983       3.67548055E-04
   7.80000019       3.79822566E-04
   7.92000008       3.92372225E-04
   8.03999996       4.05196741E-04
   8.15999985       4.18295502E-04
   8.27999973       4.31667431E-04
   8.39999962       4.45311161E-04
   8.52000046       4.59225063E-04
   8.64000034       4.73407214E-04
   8.76000023       4.87855403E-04
   8.88000011       5.02566923E-04
   9.00000000       5.17538923E-04
   9.11999989       5.32767968E-04
   9.23999977       5.48250042E-04
   9.35999966       5.63980546E-04
   9.47999954       5.79954416E-04
   9.60000038       5.96166181E-04
   9.72000027       6.12610020E-04
   9.84000015       6.29279588E-04
   9.96000004       6.46168366E-04
   10.0799999       6.63269253E-04
   10.1999998       6.80574682E-04
   10.3199997       6.98076561E-04
   10.4399996       7.15766160E-04
   10.5600004       7.33634341E-04
   10.6800003       7.51671498E-04
   10.8000002       7.69867678E-04
   10.9200001       7.88212463E-04
   11.0400000       8.06695141E-04
   11.1599998       8.25304480E-04
   11.2799997       8.44028837E-04
   11.3999996       8.62855988E-04
   11.5200005       8.81773129E-04
   11.6400003       9.00766987E-04
   11.7600002       9.19823942E-04
   11.8800001       9.38929967E-04
   12.0000000       9.58070799E-04
   12.1199999       9.77232005E-04
   12.2399998       9.96398507E-04
   12.3599997       1.01555465E-03
   12.4799995       1.03468460E-03
   12.6000004       1.05377205E-03
   12.7200003       1.07280025E-03
   12.8400002       1.09175243E-03
   12.9600000       1.11061172E-03
   13.0799999       1.12936134E-03
   13.1999998       1.14798394E-03
   13.3199997       1.16646185E-03
   13.4399996       1.18477724E-03
   13.5600004       1.20291184E-03
   13.6800003       1.22084713E-03
   13.8000002       1.23856461E-03
   13.9200001       1.25604565E-03
   14.0400000       1.27327209E-03
   14.1599998       1.29022566E-03
   14.2799997       1.30688807E-03
   14.3999996       1.32324127E-03
   14.5200005       1.33926689E-03
   14.6400003       1.35494641E-03
   14.7600002       1.37026119E-03
   14.8800001       1.38519309E-03
   15.0000000       1.39972393E-03
   15.1199999       1.41383591E-03
   15.2399998       1.42751215E-03
   15.3599997       1.44073553E-03
   15.4799995       1.45348907E-03
   15.6000004       1.46575621E-03
   15.7200003       1.47752056E-03
   15.8400002       1.48876652E-03
   15.9600000       1.49947847E-03
   16.0799999       1.50964153E-03
   16.2000008       1.51924137E-03
   16.3199997       1.52826426E-03
   16.4400005       1.53669680E-03
   16.5599995       1.54452608E-03
   16.6800003       1.55173952E-03
   16.7999992       1.55832514E-03
   16.9200001       1.56427186E-03
   17.0400009       1.56956923E-03
   17.1599998       1.57420710E-03
   17.2800007       1.57817663E-03
   17.3999996       1.58146967E-03
   17.5200005       1.58407842E-03
   17.6399994       1.58599613E-03
   17.7600002       1.58721674E-03
   17.8799992       1.58773467E-03
   18.0000000       1.58754573E-03
   18.1200008       1.58664619E-03
   18.2399998       1.58503361E-03
   18.3600006       1.58270611E-03
   18.4799995       1.57966267E-03
   18.6000004       1.57590304E-03
   18.7199993       1.57142722E-03
   18.8400002       1.56623696E-03
   18.9599991       1.56033400E-03
   19.0799999       1.55372196E-03
   19.2000008       1.54640502E-03
   19.3199997       1.53838797E-03
   19.4400005       1.52967661E-03
   19.5599995       1.52027758E-03
   19.6800003       1.51019834E-03
   19.7999992       1.49944692E-03
   19.9200001       1.48803240E-03
   20.0400009       1.47596491E-03
   20.1599998       1.46325550E-03
   20.2800007       1.44991593E-03
   20.3999996       1.43595901E-03
   20.5200005       1.42139778E-03
   20.6399994       1.40624598E-03
   20.7600002       1.39051804E-03
   20.8799992       1.37422932E-03
   21.0000000       1.35739509E-03
   21.1200008       1.34003209E-03
   21.2399998       1.32215745E-03
   21.3600006       1.30378909E-03
   21.4799995       1.28494564E-03
   21.6000004       1.26564561E-03
   21.7199993       1.24590879E-03
   21.8400002       1.22575485E-03
   21.9599991       1.20520394E-03
   22.0799999       1.18427689E-03
   22.2000008       1.16299489E-03
   22.3199997       1.14137947E-03
   22.4400005       1.11945265E-03
   22.5599995       1.09723653E-03
   22.6800003       1.07475335E-03
   22.7999992       1.05202559E-03
   22.9200001       1.02907536E-03
   23.0400009       1.00592535E-03
   23.1599998       9.82598285E-04
   23.2800007       9.59116907E-04
   23.3999996       9.35504038E-04
   23.5200005       9.11783020E-04
   23.6399994       8.87976843E-04
   23.7600002       8.64108675E-04
   23.8799992       8.40201217E-04
   24.0000000       8.16276995E-04
   24.1200008       7.92357896E-04
   24.2399998       7.68465979E-04
   24.3600006       7.44622666E-04
   24.4799995       7.20849552E-04
   24.6000004       6.97167940E-04
   24.7199993       6.73599017E-04
   24.8400002       6.50163507E-04
   24.9599991       6.26881781E-04
   25.0799999       6.03773340E-04
   25.2000008       5.80857217E-04
   25.3199997       5.58151864E-04
   25.4400005       5.35675383E-04
   25.5599995       5.13445470E-04
   25.6800003       4.91479295E-04
   25.7999992       4.69793769E-04
   25.9200001       4.48405102E-04
   26.0400009       4.27328865E-04
   26.1599998       4.06579842E-04
   26.2800007       3.86171916E-04
   26.3999996       3.66118416E-04
   26.5200005       3.46431858E-04
   26.6399994       3.27124202E-04
   26.7600002       3.08206858E-04
   26.8799992       2.89690564E-04
   27.0000000       2.71585450E-04
   27.1200008       2.53900944E-04
   27.2399998       2.36645705E-04
   27.3600006       2.19827620E-04
   27.4799995       2.03453834E-04
   27.6000004       1.87530735E-04
   27.7199993       1.72063985E-04
   27.8400002       1.57058588E-04
   27.9599991       1.42518853E-04
   28.0799999       1.28448330E-04
   28.2000008       1.14849921E-04
   28.3199997       1.01725767E-04
   28.4400005       8.90773154E-05
   28.5599995       7.69053659E-05
   28.6800003       6.52100862E-05
   28.7999992       5.39910798E-05
   28.9200001       4.32473789E-05
   29.0400009       3.29774302E-05
   29.1599998       2.31790382E-05
   29.2800007       1.38493642E-05
   29.3999996       4.98489680E-06
   29.5200005      -3.41850318E-06
   29.6399994      -1.13655351E-05
   29.7600002      -1.88613776E-05
   29.8799992      -2.59116205E-05
   30.0000000      -3.25222281E-05
   30.1200008      -3.86995453E-05
   30.2399998      -4.44503603E-05
   30.3600006      -4.97819310E-05
   30.4799995      -5.47020063E-05
   30.6000004      -5.92188298E-05
   30.7199993      -6.33410746E-05
   30.8400002      -6.70777154E-05
   30.9599991      -7.04380000E-05
   31.0799999      -7.34313726E-05
   31.2000008      -7.60674666E-05
   31.3199997      -7.83561045E-05
   31.4400005      -8.03073563E-05
   31.5599995      -8.19315683E-05
   31.6800003      -8.32392616E-05
   31.7999992      -8.42411464E-05
   31.9200001      -8.49479984E-05
   32.0400009      -8.53706661E-05
   32.1599998      -8.55200124E-05
   32.2799988      -8.54069804E-05
   32.4000015      -8.50426513E-05
   32.5200005      -8.44382666E-05
   32.6399994      -8.36052059E-05
   32.7599983      -8.25548996E-05
   32.8800011      -8.12987491E-05
   33.0000000      -7.98480032E-05
   33.1199989      -7.82137067E-05
   33.2400017      -7.64066790E-05
   33.3600006      -7.44375575E-05
   33.4799995      -7.23168996E-05
   33.5999985      -7.00551682E-05
   33.7200012      -6.76628042E-05
   33.8400002      -6.51501905E-05
   33.9599991      -6.25275425E-05
   34.0800018      -5.98049082E-05
   34.2000008      -5.69920667E-05
   34.3199997      -5.40985675E-05
   34.4399986      -5.11337348E-05
   34.5600014      -4.81067036E-05
   34.6800003      -4.50264597E-05
   34.7999992      -4.19018252E-05
   34.9199982      -3.87413893E-05
   35.0400009      -3.55535012E-05
   35.1599998      -3.23461718E-05
   35.2799988      -2.91270844E-05
   35.4000015      -2.59035733E-05
   35.5200005      -2.26826505E-05
   35.6399994      -1.94710592E-05
   35.7599983      -1.62752913E-05
   35.8800011      -1.31016186E-05
   36.0000000      -9.95608298E-06
   36.1199989      -6.84449469E-06
   36.2400017      -3.77240622E-06
   36.3600006      -7.45098760E-07
   36.4799995       2.23243296E-06
   36.5999985       5.15549482E-06
   36.7200012       8.01969509E-06
   36.8400002       1.08209451E-05
   36.9599991       1.35554610E-05
   37.0800018       1.62197357E-05
   37.2000008       1.88105369E-05
   37.3199997       2.13248968E-05
   37.4399986       2.37600925E-05
   37.5600014       2.61136611E-05
   37.6800003       2.83833997E-05
   37.7999992       3.05673530E-05
   37.9199982       3.26638074E-05
   38.0400009       3.46712732E-05
   38.1599998       3.65884516E-05
   38.2799988       3.84142295E-05
   38.4000015       4.01476755E-05
   38.5200005       4.17880656E-05
   38.6399994       4.33349160E-05
   38.7599983       4.47880120E-05
   38.8800011       4.61473683E-05
   39.0000000       4.74132212E-05
   39.1199989       4.85859309E-05
   39.2400017       4.96659668E-05
   39.3600006       5.06538563E-05
   39.4799995       5.15502397E-05
   39.5999985       5.23559247E-05
   39.7200012       5.30719590E-05
   39.8400002       5.36996740E-05
   39.9599991       5.42406669E-05
   40.0800018       5.46967131E-05
   40.2000008       5.50696313E-05
   40.3199997       5.53611899E-05
   40.4399986       5.55730439E-05
   40.5600014       5.57067215E-05
   40.6800003       5.57637613E-05
   40.7999992       5.57458006E-05
   40.9199982       5.56546875E-05
   41.0400009       5.54925173E-05
   41.1599998       5.52615893E-05
   41.2799988       5.49643300E-05
   41.4000015       5.46031733E-05
   41.5200005       5.41805202E-05
   41.6399994       5.36987172E-05
   41.7599983       5.31601181E-05
   41.8800011       5.25671312E-05
   42.0000000       5.19222522E-05
   42.1199989       5.12280567E-05
   42.2400017       5.04870986E-05
   42.3600006       4.97018409E-05
   42.4799995       4.88745791E-05
   42.5999985       4.80074268E-05
   42.7200012       4.71024105E-05
   42.8400002       4.61615709E-05
   42.9599991       4.51870837E-05
   43.0800018       4.41813208E-05
   43.2000008       4.31468397E-05
   43.3199997       4.20862452E-05
   43.4399986       4.10020912E-05
   43.5600014       3.98967459E-05
   43.6800003       3.87723376E-05
   43.7999992       3.76307944E-05
   43.9199982       3.64739499E-05
   44.0400009       3.53036448E-05
   44.1599998       3.41218110E-05
   44.2799988       3.29304494E-05
   44.4000015       3.17315498E-05
   44.5200005       3.05270114E-05
   44.6399994       2.93185112E-05
   44.7599983       2.81075299E-05
   44.8800011       2.68954045E-05
   45.0000000       2.56834574E-05
   45.1199989       2.44731364E-05
   45.2400017       2.32660623E-05
   45.3600006       2.20640177E-05
   45.4799995       2.08688034E-05
   45.5999985       1.96820820E-05
   45.7200012       1.85052359E-05
   45.8400002       1.73393128E-05
   45.9599991       1.61850912E-05
   46.0800018       1.50432179E-05
   46.2000008       1.39143731E-05
   46.3199997       1.27993881E-05
   46.4399986       1.16992524E-05
   46.5600014       1.06150301E-05
   46.6800003       9.54772077E-06
   46.7999992       8.49813205E-06
   46.9199982       7.46683463E-06
   47.0400009       6.45421596E-06
   47.1599998       5.46059664E-06
   47.2799988       4.48636729E-06
   47.4000015       3.53206201E-06
   47.5200005       2.59833632E-06
   47.6399994       1.68586030E-06
   47.7599983       7.95180313E-07
   47.8800011      -7.33858840E-08
   48.0000000      -9.19759884E-07
   48.1199989      -1.74402464E-06
   48.2400017      -2.54628299E-06
   48.3600006      -3.32653644E-06
   48.4799995      -4.08463075E-06
   48.5999985      -4.82030191E-06
   48.7200012      -5.53329937E-06
   48.8400002      -6.22352582E-06
   48.9599991      -6.89112585E-06
   49.0800018      -7.53647646E-06
   49.2000008      -8.16008833E-06
   49.3199997      -8.76244758E-06
   49.4399986      -9.34388936E-06
   49.5600014      -9.90453373E-06
   49.6800003      -1.04443334E-05
   49.7999992      -1.09631828E-05
   49.9199982      -1.14610721E-05
   50.0400009      -1.19381730E-05
   50.1599998      -1.23948748E-05
   50.2799988      -1.28317124E-05
   50.4000015      -1.32492614E-05
   50.5200005      -1.36480267E-05
   50.6399994      -1.40283928E-05
   50.7599983      -1.43906354E-05
   50.8800011      -1.47350047E-05
   51.0000000      -1.50618216E-05
   51.1199989      -1.53715373E-05
   51.2400017      -1.56647457E-05
   51.3600006      -1.59421052E-05
   51.4799995      -1.62042415E-05
   51.5999985      -1.64516550E-05
   51.7200012      -1.66846785E-05
   51.8400002      -1.69035193E-05
   51.9599991      -1.71083666E-05
   52.0800018      -1.72995024E-05
   52.2000008      -1.74774013E-05
   52.3199997      -1.76427329E-05
   52.4399986      -1.77962866E-05
   52.5600014      -1.79388389E-05
   52.6800003      -1.80710085E-05
   52.7999992      -1.81931864E-05
   52.9199982      -1.83055563E-05
   53.0400009      -1.84081928E-05
   53.1599998      -1.85012177E-05
   53.2799988      -1.85849294E-05
   53.4000015      -1.86598445E-05
   53.5200005      -1.87266596E-05
   53.6399994      -1.87861224E-05
   53.7599983      -1.88388840E-05
   53.8800011      -1.88854228E-05
   54.0000000      -1.89260190E-05
   54.1199989      -1.89608509E-05
   54.2400017      -1.89901093E-05
   54.3600006      -1.90141072E-05
   54.4799995      -1.90333030E-05
   54.5999985      -1.90482551E-05
   54.7200012      -1.90594892E-05
   54.8400002      -1.90673909E-05
   54.9599991      -1.90721366E-05
   55.0800018      -1.90737464E-05
   55.2000008      -1.90721858E-05
   55.3199997      -1.90675310E-05
   55.4399986      -1.90600713E-05
   55.5600014      -1.90503324E-05
   55.6800003      -1.90389819E-05
   55.7999992      -1.90266837E-05
   55.9199982      -1.90139144E-05
   56.0400009      -1.90008923E-05
   56.1599998      -1.89875791E-05
   56.2799988      -1.89738148E-05
   56.4000015      -1.89594539E-05
   56.5200005      -1.89445309E-05
   56.6399994      -1.89292841E-05
   56.7599983      -1.89141156E-05
   56.8800011      -1.88994509E-05
   57.0000000      -1.88855993E-05
   57.1199989      -1.88726863E-05
   57.2400017      -1.88606573E-05
   57.3600006      -1.88493977E-05
   57.4799995      -1.88388749E-05
   57.5999985      -1.88292361E-05
   57.7200012      -1.88208287E-05
   57.8400002      -1.88141075E-05
   57.9599991      -1.88094655E-05
   58.0800018      -1.88070971E-05
   58.2000008      -1.88069171E-05
   58.3199997      -1.88086105E-05
   58.4399986      -1.88117829E-05
   58.5600014      -1.88161430E-05
   58.6800003      -1.88216418E-05
   58.7999992      -1.88285103E-05
   58.9199982      -1.88371741E-05
   59.0400009      -1.88480517E-05
   59.1599998      -1.88614031E-05
   59.2799988      -1.88772228E-05
   59.4000015      -1.88952563E-05
   59.5200005      -1.89151469E-05
   59.6399994      -1.89365928E-05
   59.7599983      -1.89594866E-05
   59.8800011      -1.89839611E-05
   60.0000000      -1.90102983E-05
   60.1199989      -1.90387873E-05
   60.2400017      -1.90695609E-05
   60.3600006      -1.91025356E-05
   60.4799995      -1.91374274E-05
   60.5999985      -1.91738800E-05
   60.7200012      -1.92116167E-05
   60.8400002      -1.92505449E-05
   60.9599991      -1.92907719E-05
   61.0800018      -1.93324995E-05
   61.2000008      -1.93758879E-05
   61.3199997      -1.94209370E-05
   61.4399986      -1.94674285E-05
   61.5600014      -1.95150096E-05
   61.6800003      -1.95633074E-05
   61.7999992      -1.96120909E-05
   61.9199982      -1.96613564E-05
   62.0400009      -1.97113004E-05
   62.1599998      -1.97622139E-05
   62.2799988      -1.98143171E-05
   62.4000015      -1.98676407E-05
   62.5200005      -1.99219849E-05
   62.6399994      -1.99769911E-05
   62.7599983      -2.00322793E-05
   62.8800011      -2.00875729E-05
   63.0000000      -2.01427829E-05
   63.1199989      -2.01979528E-05
   63.2400017      -2.02531628E-05
   63.3600006      -2.03084055E-05
   63.4799995      -2.03634954E-05
   63.5999985      -2.04181124E-05
   63.7200012      -2.04719126E-05
   63.8400002      -2.05246870E-05
   63.9599991      -2.05764809E-05
   64.0800018      -2.06275836E-05
   64.1999969      -2.06784189E-05
   64.3199997      -2.07293488E-05
   64.4400024      -2.07804696E-05
   64.5599976      -2.08315250E-05
   64.6800003      -2.08819492E-05
   64.8000031      -2.09310456E-05
   64.9199982      -2.09782193E-05
   65.0400009      -2.10231628E-05
   65.1600037      -2.10659346E-05
   65.2799988      -2.11068782E-05
   65.4000015      -2.11464339E-05
   65.5199966      -2.11849347E-05
   65.6399994      -2.12224513E-05
   65.7600021      -2.12587547E-05
   65.8799973      -2.12934374E-05
   66.0000000      -2.13260664E-05
   66.1200027      -2.13563453E-05
   66.2399979      -2.13842013E-05
   66.3600006      -2.14097490E-05
   66.4800034      -2.14331849E-05
   66.5999985      -2.14546435E-05
   66.7200012      -2.14741121E-05
   66.8399963      -2.14914126E-05
   66.9599991      -2.15062901E-05
   67.0800018      -2.15185337E-05
   67.1999969      -2.15280761E-05
   67.3199997      -2.15350465E-05
   67.4400024      -2.15396922E-05
   67.5599976      -2.15422751E-05
   67.6800003      -2.15429245E-05
   67.8000031      -2.15415621E-05
   67.9199982      -2.15378932E-05
   68.0400009      -2.15315158E-05
   68.1600037      -2.15220534E-05
   68.2799988      -2.15092914E-05
   68.4000015      -2.14932570E-05
   68.5199966      -2.14741849E-05
   68.6399994      -2.14524298E-05
   68.7600021      -2.14283173E-05
   68.8799973      -2.14020220E-05
   69.0000000      -2.13735148E-05
   69.1200027      -2.13425810E-05
   69.2399979      -2.13089224E-05
   69.3600006      -2.12722625E-05
   69.4800034      -2.12324449E-05
   69.5999985      -2.11894676E-05
   69.7200012      -2.11434690E-05
   69.8399963      -2.10946564E-05
   69.9599991      -2.10432318E-05
   70.0800018      -2.09893260E-05
   70.1999969      -2.09329792E-05
   70.3199997      -2.08741494E-05
   70.4400024      -2.08127458E-05
   70.5599976      -2.07486773E-05
   70.6800003      -2.06818768E-05
   70.8000031      -2.06123223E-05
   70.9199982      -2.05400356E-05
   71.0400009      -2.04650878E-05
   71.1600037      -2.03875861E-05
   71.2799988      -2.03076615E-05
   71.4000015      -2.02254487E-05
   71.5199966      -2.01410621E-05
   71.6399994      -2.00545674E-05
   71.7600021      -1.99659717E-05
   71.8799973      -1.98752259E-05
   72.0000000      -1.97822628E-05
   72.1200027      -1.96870296E-05
   72.2399979      -1.95895354E-05
   72.3600006      -1.94898712E-05
   72.4800034      -1.93881897E-05
   72.5999985      -1.92846601E-05
   72.7200012      -1.91794079E-05