  -30.0000000       0.00000000    
  -29.8799992       0.00000000    
  -29.7600002       0.00000000    
  -29.6399994      -8.84230862E-17
  -29.5200005      -4.19909596E-16
  -29.3999996      -9.80184727E-16
  -29.2800007      -1.37164661E-15
  -29.1599998      -9.99516454E-16
  -29.0400009       3.27155279E-16
  -28.9200001       2.00148443E-15
  -28.7999992       3.24459549E-15
  -28.6800003       4.79507681E-15
  -28.5599995       1.03473299E-14
  -28.4400005       2.56913868E-14
  -28.3199997       5.45106224E-14
  -28.2000008       9.23686447E-14
  -28.0799999       1.22819547E-13
  -27.9599991       1.19614849E-13
  -27.8400002       5.59142136E-14
  -27.7199993      -8.29580680E-14
  -27.6000004      -2.88944839E-13
  -27.4799995      -5.26587075E-13
  -27.3600006      -7.33109482E-13
  -27.2399998      -8.19359500E-13
  -27.1200008      -6.71727810E-13
  -27.0000000      -1.65336047E-13
  -26.8799992       7.93258146E-13
  -26.7600002       2.18199265E-12
  -26.6399994       3.75354262E-12
  -26.5200005       4.95613143E-12
  -26.3999996       4.97019613E-12
  -26.2800007       2.93292712E-12
  -26.1599998      -1.64982025E-12
  -26.0400009      -8.42094710E-12
  -25.9200001      -1.58435261E-11
  -25.7999992      -2.12805398E-11
  -25.6800003      -2.16375303E-11
  -25.5599995      -1.44983296E-11
  -25.4400005       5.88301760E-13
  -25.3199997       2.12065313E-11
  -25.2000008       4.20824729E-11
  -25.0799999       5.62685072E-11
  -24.9599991       5.73133555E-11
  -24.8400002       4.17538573E-11
  -24.7199993       1.09851078E-11
  -24.6000004      -2.83544195E-11
  -24.4799995      -6.58800167E-11
  -24.3600006      -9.05309785E-11
  -24.2399998      -9.42314213E-11
  -24.1200008      -7.48128295E-11
  -24.0000000      -3.70342472E-11
  -23.8799992       8.80835248E-12
  -23.7600002       5.02777056E-11
  -23.6399994       7.69817959E-11
  -23.5200005       8.39779149E-11
  -23.3999996       7.30874250E-11
  -23.2800007       5.16246143E-11
  -23.1599998       2.90821811E-11
  -23.0400009       1.31549762E-11
  -22.9200001       6.76251459E-12
  -22.7999992       7.31437393E-12
  -22.6800003       8.50817247E-12
  -22.5599995       3.85105879E-12
  -22.4400005      -9.68143794E-12
  -22.3199997      -2.95458900E-11
  -22.2000008      -4.81633552E-11
  -22.0799999      -5.60394162E-11
  -21.9599991      -4.62775582E-11
  -21.8400002      -1.85915536E-11
  -21.7199993       1.90151297E-11
  -21.6000004       5.19052162E-11
  -21.4799995       6.35156511E-11
  -21.3600006       4.15863941E-11
  -21.2399998      -1.63286624E-11
  -21.1200008      -1.00188607E-10
  -21.0000000      -1.88818974E-10
  -20.8799992      -2.55075461E-10
  -20.7600002      -2.73248590E-10
  -20.6399994      -2.26354394E-10
  -20.5200005      -1.11055387E-10
  -20.3999996       6.10884190E-11
  -20.2800007       2.65902106E-10
  -20.1599998       4.70956829E-10
  -20.0400009       6.39939657E-10
  -19.9200001       7.35375483E-10
  -19.7999992       7.19342197E-10
  -19.6800003       5.53424251E-10
  -19.5599995       2.00216094E-10
  -19.4400005      -3.71500580E-10
  -19.3199997      -1.17741561E-09
  -19.2000008      -2.20627361E-09
  -19.0799999      -3.41084538E-09
  -18.9599991      -4.70661776E-09
  -18.8400002      -5.98204020E-09
  -18.7199993      -7.12040071E-09
  -18.6000004      -8.02864086E-09
  -18.4799995      -8.66459082E-09
  -18.3600006      -9.05308362E-09
  -18.2399998      -9.28418320E-09
  -18.1200008      -9.49254186E-09
  -18.0000000      -9.82369119E-09
  -17.8799992      -1.03981499E-08
  -17.7600002      -1.12852403E-08
  -17.6399994      -1.24949935E-08
  -17.5200005      -1.39896787E-08
  -17.3999996      -1.57092028E-08
  -17.2800007      -1.75997918E-08
  -17.1599998      -1.96350989E-08
  -17.0400009      -2.18228990E-08
  -16.9200001      -2.41970621E-08
  -16.7999992      -2.68004019E-08
  -16.6800003      -2.96667721E-08
  -16.5599995      -3.28095311E-08
  -16.4400005      -3.62192196E-08
  -16.3199997      -3.98684143E-08
  -16.2000008      -4.37187957E-08
  -16.0799999      -4.77259476E-08
  -15.9600000      -5.18403880E-08
  -15.8400002      -5.60074511E-08
  -15.7200003      -6.01705992E-08
  -15.6000004      -6.42818350E-08
  -15.4799995      -6.83187551E-08
  -15.3599997      -7.23028961E-08
  -15.2399998      -7.63110961E-08
  -15.1199999      -8.04723612E-08
  -15.0000000      -8.49477999E-08
  -14.8800001      -8.98981725E-08
  -14.7600002      -9.54496500E-08
  -14.6400003      -1.01670267E-07
  -14.5200005      -1.08566034E-07
  -14.3999996      -1.16098548E-07
  -14.2799997      -1.24217436E-07
  -14.1599998      -1.32895480E-07
  -14.0400000      -1.42153993E-07
  -13.9200001      -1.52070996E-07
  -13.8000002      -1.62771741E-07
  -13.6800003      -1.74408186E-07
  -13.5600004      -1.87136749E-07
  -13.4399996      -2.01101287E-07
  -13.3199997      -2.16424013E-07
  -13.1999998      -2.33201064E-07
  -13.0799999      -2.51498477E-07
  -12.9600000      -2.71346551E-07
  -12.8400002      -2.92735308E-07
  -12.7200003      -3.15618223E-07
  -12.6000004      -3.39931972E-07
  -12.4799995      -3.65633326E-07
  -12.3599997      -3.92745704E-07
  -12.2399998      -4.21399335E-07
  -12.1199999      -4.51844897E-07
  -12.0000000      -4.84428369E-07
  -11.8800001      -5.19526225E-07
  -11.7600002      -5.57459373E-07
  -11.6400003      -5.98413351E-07
  -11.5200005      -6.42396571E-07
  -11.3999996      -6.89255842E-07
  -11.2799997      -7.38748895E-07
  -11.1599998      -7.90652450E-07
  -11.0400000      -8.44870499E-07
  -10.9200001      -9.01506212E-07
  -10.8000002      -9.60875013E-07
  -10.6800003      -1.02345689E-06
  -10.5600004      -1.08980817E-06
  -10.4399996      -1.16046363E-06
  -10.3199997      -1.23586244E-06
  -10.1999998      -1.31631475E-06
  -10.0799999      -1.40201246E-06
  -9.96000004      -1.49306902E-06
  -9.84000015      -1.58956550E-06
  -9.72000027      -1.69158761E-06
  -9.60000038      -1.79924371E-06
  -9.47999954      -1.91267054E-06
  -9.35999966      -2.03203558E-06
  -9.23999977      -2.15755085E-06
  -9.11999989      -2.28949602E-06
  -9.00000000      -2.42824581E-06
  -8.88000011      -2.57428565E-06
  -8.76000023      -2.72820284E-06
  -8.64000034      -2.89064337E-06
  -8.52000046      -3.06225161E-06
  -8.39999962      -3.24360030E-06
  -8.27999973      -3.43514898E-06
  -8.15999985      -3.63723530E-06
  -8.03999996      -3.85011936E-06
  -7.92000008      -4.07405605E-06
  -7.80000019      -4.30938007E-06
  -7.67999983      -4.55656664E-06
  -7.55999994      -4.81624966E-06
  -7.44000006      -5.08918993E-06
  -7.32000017      -5.37620781E-06
  -7.19999981      -5.67810139E-06
  -7.07999992      -5.99558280E-06
  -6.96000004      -6.32925685E-06
  -6.84000015      -6.67965151E-06
  -6.71999979      -7.04727245E-06
  -6.59999990      -7.43268902E-06
  -6.48000002      -7.83658015E-06
  -6.36000013      -8.25976349E-06
  -6.23999977      -8.70317308E-06
  -6.11999989      -9.16780482E-06
  -6.00000000      -9.65466006E-06
  -5.88000011      -1.01647047E-05
  -5.76000023      -1.06988628E-05
  -5.63999987      -1.12580492E-05
  -5.51999998      -1.18432126E-05
  -5.40000010      -1.24553908E-05
  -5.28000021      -1.30957224E-05
  -5.15999985      -1.37654415E-05
  -5.03999996      -1.44658234E-05
  -4.92000008      -1.51981385E-05
  -4.80000019      -1.59636002E-05
  -4.67999983      -1.67633625E-05
  -4.55999994      -1.75985533E-05
  -4.44000006      -1.84703240E-05
  -4.32000017      -1.93799260E-05
  -4.19999981      -2.03287254E-05
  -4.07999992      -2.13182229E-05
  -3.96000004      -2.23500047E-05
  -3.83999991      -2.34256931E-05
  -3.72000003      -2.45468927E-05
  -3.59999990      -2.57151914E-05
  -3.48000002      -2.69321627E-05
  -3.35999990      -2.81994216E-05
  -3.24000001      -2.95186765E-05
  -3.11999989      -3.08917370E-05
  -3.00000000      -3.23205131E-05
  -2.88000011      -3.38069658E-05
  -2.75999999      -3.53530559E-05
  -2.64000010      -3.69607151E-05
  -2.51999998      -3.86318607E-05
  -2.40000010      -4.03684244E-05
  -2.27999997      -4.21724108E-05
  -2.16000009      -4.40459589E-05
  -2.03999996      -4.59913390E-05
  -1.91999996      -4.80109265E-05
  -1.79999995      -5.01071263E-05
  -1.67999995      -5.22823175E-05
  -1.55999994      -5.45388029E-05
  -1.44000006      -5.68788528E-05
  -1.32000005      -5.93047262E-05
  -1.20000005      -6.18187696E-05
  -1.08000004      -6.44234897E-05
 -0.959999979      -6.71215603E-05
 -0.839999974      -6.99158045E-05
 -0.720000029      -7.28091254E-05
 -0.600000024      -7.58043971E-05
 -0.479999989      -7.89044643E-05
 -0.360000014      -8.21120775E-05
 -0.239999995      -8.54299942E-05
 -0.119999997      -8.88609575E-05
  -1.11022302E-15  -9.24078631E-05
  0.119999997      -9.60736870E-05
  0.239999995      -9.98615797E-05
  0.360000014      -1.03774706E-04
  0.479999989      -1.07816246E-04
  0.600000024      -1.11989328E-04
  0.720000029      -1.16296957E-04
  0.839999974      -1.20742094E-04
  0.959999979      -1.25327686E-04
   1.08000004      -1.30056826E-04
   1.20000005      -1.34932692E-04
   1.32000005      -1.39958647E-04
   1.44000006      -1.45138125E-04
   1.55999994      -1.50474618E-04
   1.67999995      -1.55971517E-04
   1.79999995      -1.61632226E-04
   1.91999996      -1.67460035E-04
   2.03999996      -1.73458131E-04
   2.16000009      -1.79629817E-04
   2.27999997      -1.85978381E-04
   2.40000010      -1.92507083E-04
   2.51999998      -1.99219241E-04
   2.64000010      -2.06118042E-04
   2.75999999      -2.13206542E-04
   2.88000011      -2.20487738E-04
   3.00000000      -2.27964498E-04
   3.11999989      -2.35639629E-04
   3.24000001      -2.43516086E-04
   3.35999990      -2.51596939E-04
   3.48000002      -2.59885273E-04
   3.59999990      -2.68384203E-04
   3.72000003      -2.77096813E-04
   3.83999991      -2.86025985E-04
   3.96000004      -2.95174395E-04
   4.07999992      -3.04544461E-04
   4.19999981      -3.14138422E-04
   4.32000017      -3.23958433E-04
   4.44000006      -3.34006472E-04
   4.55999994      -3.44284606E-04
   4.67999983      -3.54794669E-04
   4.80000019      -3.65538552E-04
   4.92000008      -3.76517797E-04
   5.03999996      -3.87734006E-04
   5.15999985      -3.99188400E-04
   5.28000021      -4.10882087E-04
   5.40000010      -4.22816083E-04
   5.51999998      -4.34991205E-04
   5.63999987      -4.47408063E-04
   5.76000023      -4.60067124E-04
   5.88000011      -4.72968561E-04
   6.00000000      -4.86112374E-04
   6.11999989      -4.99498216E-04
   6.23999977      -5.13125502E-04
   6.36000013      -5.26993361E-04
   6.48000002      -5.41100628E-04
   6.59999990      -5.55446139E-04
   6.71999979      -5.70028205E-04
   6.84000015      -5.84845082E-04
   6.96000004      -5.99894498E-04
   7.07999992      -6.15174067E-04
   7.19999981      -6.30680704E-04
   7.32000017      -6.46411208E-04
   7.44000006      -6.62361737E-04
   7.55999994      -6.78528508E-04
   7.67999983      -6.94907387E-04
   7.80000019      -7.11494009E-04
   7.92000008      -7.28283834E-04
   8.03999996      -7.45271915E-04
   8.15999985      -7.62452953E-04
   8.27999973      -7.79821014E-04
   8.39999962      -7.97369750E-04
   8.52000046      -8.15092353E-04
   8.64000034      -8.32981605E-04
   8.76000023      -8.51029938E-04
   8.88000011      -8.69229727E-04
   9.00000000      -8.87572940E-04
   9.11999989      -9.06050787E-04
   9.23999977      -9.24654596E-04
   9.35999966      -9.43374762E-04
   9.47999954      -9.62201622E-04
   9.60000038      -9.81124700E-04
   9.72000027      -1.00013369E-03
   9.84000015      -1.01921742E-03
   9.96000004      -1.03836495E-03
   10.0799999      -1.05756428E-03
   10.1999998      -1.07680343E-03
   10.3199997      -1.09606993E-03
   10.4399996      -1.11535087E-03
   10.5600004      -1.13463297E-03
   10.6800003      -1.15390262E-03
   10.8000002      -1.17314595E-03
   10.9200001      -1.19234901E-03
   11.0400000      -1.21149758E-03
   11.1599998      -1.23057724E-03
   11.2799997      -1.24957284E-03
   11.3999996      -1.26846915E-03
   11.5200005      -1.28725043E-03
   11.6400003      -1.30590040E-03
   11.7600002      -1.32440298E-03
   11.8800001      -1.34274177E-03
   12.0000000      -1.36090000E-03
   12.1199999      -1.37886114E-03
   12.2399998      -1.39660854E-03
   12.3599997      -1.41412520E-03
   12.4799995      -1.43139425E-03
   12.6000004      -1.44839799E-03
   12.7200003      -1.46511954E-03
   12.8400002      -1.48154120E-03
   12.9600000      -1.49764586E-03
   13.0799999      -1.51341618E-03
   13.1999998      -1.52883504E-03
   13.3199997      -1.54388521E-03
   13.4399996      -1.55854947E-03
   13.5600004      -1.57281070E-03
   13.6800003      -1.58665201E-03
   13.8000002      -1.60005596E-03
   13.9200001      -1.61300634E-03
   14.0400000      -1.62548653E-03
   14.1599998      -1.63748034E-03
   14.2799997      -1.64897169E-03
   14.3999996      -1.65994500E-03
   14.5200005      -1.67038478E-03
   14.6400003      -1.68027601E-03
   14.7600002      -1.68960379E-03
   14.8800001      -1.69835356E-03
   15.0000000      -1.70651160E-03
   15.1199999      -1.71406451E-03
   15.2399998      -1.72099960E-03
   15.3599997      -1.72730465E-03
   15.4799995      -1.73296803E-03
   15.6000004      -1.73797843E-03
   15.7200003      -1.74232514E-03
   15.8400002      -1.74599816E-03
   15.9600000      -1.74898747E-03
   16.0799999      -1.75128446E-03
   16.2000008      -1.75288087E-03
   16.3199997      -1.75376912E-03
   16.4400005      -1.75394234E-03
   16.5599995      -1.75339438E-03
   16.6800003      -1.75211986E-03
   16.7999992      -1.75011391E-03
   16.9200001      -1.74737256E-03
   17.0400009      -1.74389314E-03
   17.1599998      -1.73967320E-03
   17.2800007      -1.73471146E-03
   17.3999996      -1.72900781E-03
   17.5200005      -1.72256224E-03
   17.6399994      -1.71537604E-03
   17.7600002      -1.70745119E-03
   17.8799992      -1.69879058E-03
   18.0000000      -1.68939773E-03
   18.1200008      -1.67927716E-03
   18.2399998      -1.66843436E-03
   18.3600006      -1.65687571E-03
   18.4799995      -1.64460822E-03
   18.6000004      -1.63163978E-03
   18.7199993      -1.61797926E-03
   18.8400002      -1.60363619E-03
   18.9599991      -1.58862083E-03
   19.0799999      -1.57294457E-03
   19.2000008      -1.55661930E-03
   19.3199997      -1.53965771E-03
   19.4400005      -1.52207329E-03
   19.5599995      -1.50388037E-03
   19.6800003      -1.48509431E-03
   19.7999992      -1.46573049E-03
   19.9200001      -1.44580554E-03
   20.0400009      -1.42533681E-03
   20.1599998      -1.40434224E-03
   20.2800007      -1.38284045E-03
   20.3999996      -1.36085053E-03
   20.5200005      -1.33839203E-03
   20.6399994      -1.31548499E-03
   20.7600002      -1.29215000E-03
   20.8799992      -1.26840791E-03
   21.0000000      -1.24428049E-03
   21.1200008      -1.21978938E-03
   21.2399998      -1.19495695E-03
   21.3600006      -1.16980600E-03
   21.4799995      -1.14435947E-03
   21.6000004      -1.11864088E-03
   21.7199993      -1.09267363E-03
   21.8400002      -1.06648146E-03
   21.9599991      -1.04008825E-03
   22.0799999      -1.01351785E-03
   22.2000008      -9.86794708E-04
   22.3199997      -9.59943281E-04
   22.4400005      -9.32987896E-04
   22.5599995      -9.05953057E-04
   22.6800003      -8.78863095E-04
   22.7999992      -8.51741992E-04
   22.9200001      -8.24613788E-04
   23.0400009      -7.97502114E-04
   23.1599998      -7.70430604E-04
   23.2800007      -7.43422541E-04
   23.3999996      -7.16501323E-04
   23.5200005      -6.89689768E-04
   23.6399994      -6.63010404E-04
   23.7600002      -6.36485347E-04
   23.8799992      -6.10136311E-04
   24.0000000      -5.83984482E-04
   24.1200008      -5.58050699E-04
   24.2399998      -5.32355392E-04
   24.3600006      -5.06918586E-04
   24.4799995      -4.81760100E-04
   24.6000004      -4.56899055E-04
   24.7199993      -4.32354020E-04
   24.8400002      -4.08142834E-04
   24.9599991      -3.84282728E-04
   25.0799999      -3.60790029E-04
   25.2000008      -3.37680453E-04
   25.3199997      -3.14969104E-04
   25.4400005      -2.92670360E-04
   25.5599995      -2.70797987E-04
   25.6800003      -2.49365112E-04
   25.7999992      -2.28383942E-04
   25.9200001      -2.07866062E-04
   26.0400009      -1.87822137E-04
   26.1599998      -1.68262079E-04
   26.2800007      -1.49195024E-04
   26.3999996      -1.30629385E-04
   26.5200005      -1.12572910E-04
   26.6399994      -9.50327012E-05
   26.7600002      -7.80151313E-05
   26.8799992      -6.15258396E-05
   27.0000000      -4.55696245E-05
   27.1200008      -3.01504733E-05
   27.2399998      -1.52715129E-05
   27.3600006      -9.35094931E-07
   27.4799995       1.28571828E-05
   27.6000004       2.61044061E-05
   27.7199993       3.88063054E-05
   27.8400002       5.09632591E-05
   27.9599991       6.25763205E-05
   28.0799999       7.36472866E-05
   28.2000008       8.41786896E-05
   28.3199997       9.41738326E-05
   28.4400005       1.03636761E-04
   28.5599995       1.12572110E-04
   28.6800003       1.20985082E-04
   28.7999992       1.28881307E-04
   28.9200001       1.36266826E-04
   29.0400009       1.43148049E-04
   29.1599998       1.49531916E-04
   29.2800007       1.55425951E-04
   29.3999996       1.60838186E-04
   29.5200005       1.65777310E-04
   29.6399994       1.70252475E-04
   29.7600002       1.74273286E-04
   29.8799992       1.77849666E-04
   30.0000000       1.80991818E-04
   30.1200008       1.83710188E-04
   30.2399998       1.86015546E-04
   30.3600006       1.87918966E-04
   30.4799995       1.89431928E-04
   30.6000004       1.90566192E-04
   30.7199993       1.91333747E-04
   30.8400002       1.91746731E-04
   30.9599991       1.91817322E-04
   31.0799999       1.91557745E-04
   31.2000008       1.90980194E-04
   31.3199997       1.90096980E-04
   31.4400005       1.88920516E-04
   31.5599995       1.87463404E-04
   31.6800003       1.85738390E-04
   31.7999992       1.83758282E-04
   31.9200001       1.81535914E-04
   32.0400009       1.79084062E-04
   32.1599998       1.76415386E-04
   32.2799988       1.73542387E-04
   32.4000015       1.70477520E-04
   32.5200005       1.67233142E-04
   32.6399994       1.63821504E-04
   32.7599983       1.60254713E-04
   32.8800011       1.56544702E-04
   33.0000000       1.52703185E-04
   33.1199989       1.48741587E-04
   33.2400017       1.44671110E-04
   33.3600006       1.40502700E-04
   33.4799995       1.36247094E-04
   33.5999985       1.31914843E-04
   33.7200012       1.27516381E-04
   33.8400002       1.23061953E-04
   33.9599991       1.18561598E-04
   34.0800018       1.14025170E-04
   34.2000008       1.09462228E-04
   34.3199997       1.04882027E-04
   34.4399986       1.00293451E-04
   34.5600014       9.57049779E-05
   34.6800003       9.11246898E-05
   34.7999992       8.65602706E-05
   34.9199982       8.20190544E-05
   35.0400009       7.75080916E-05
   35.1599998       7.30341417E-05
   35.2799988       6.86037602E-05
   35.4000015       6.42232699E-05
   35.5200005       5.98987426E-05
   35.6399994       5.56359737E-05
   35.7599983       5.14404128E-05
   35.8800011       4.73171713E-05
   36.0000000       4.32709749E-05
   36.1199989       3.93062182E-05
   36.2400017       3.54269505E-05
   36.3600006       3.16369187E-05
   36.4799995       2.79395808E-05
   36.5999985       2.43381201E-05
   36.7200012       2.08354431E-05
   36.8400002       1.74341785E-05
   36.9599991       1.41366618E-05
   37.0800018       1.09449484E-05
   37.2000008       7.86082182E-06
   37.3199997       4.88580281E-06
   37.4399986       2.02117121E-06
   37.5600014      -7.32019032E-07
   37.6800003      -3.37293091E-06
   37.7999992      -5.90092213E-06
   37.9199982      -8.31554189E-06
   38.0400009      -1.06165262E-05
   38.1599998      -1.28038073E-05
   38.2799988      -1.48775298E-05
   38.4000015      -1.68380720E-05
   38.5200005      -1.86860689E-05
   38.6399994      -2.04224070E-05
   38.7599983      -2.20482234E-05
   38.8800011      -2.35648604E-05
   39.0000000      -2.49738150E-05
   39.1199989      -2.62766735E-05
   39.2400017      -2.74750710E-05
   39.3600006      -2.85706683E-05
   39.4799995      -2.95651589E-05
   39.5999985      -3.04603127E-05
   39.7200012      -3.12580123E-05
   39.8400002      -3.19602732E-05
   39.9599991      -3.25692599E-05
   40.0800018      -3.30872426E-05
   40.2000008      -3.35165605E-05
   40.3199997      -3.38595819E-05
   40.4399986      -3.41186933E-05
   40.5600014      -3.42963176E-05
   40.6800003      -3.43949687E-05
   40.7999992      -3.44172840E-05
   40.9199982      -3.43660613E-05
   41.0400009      -3.42442108E-05
   41.1599998      -3.40546867E-05
   41.2799988      -3.38003774E-05
   41.4000015      -3.34840370E-05
   41.5200005      -3.31082374E-05
   41.6399994      -3.26754162E-05
   41.7599983      -3.21879525E-05
   41.8800011      -3.16482801E-05
   42.0000000      -3.10589676E-05
   42.1199989      -3.04227542E-05
   42.2400017      -2.97424958E-05
   42.3600006      -2.90210646E-05
   42.4799995      -2.82612400E-05
   42.5999985      -2.74656250E-05
   42.7200012      -2.66366278E-05
   42.8400002      -2.57765187E-05
   42.9599991      -2.48875203E-05
   43.0800018      -2.39718865E-05
   43.2000008      -2.30319565E-05
   43.3199997      -2.20701295E-05
   43.4399986      -2.10888065E-05
   43.5600014      -2.00902887E-05
   43.6800003      -1.90767223E-05
   43.7999992      -1.80500829E-05
   43.9199982      -1.70122112E-05
   44.0400009      -1.59648989E-05
   44.1599998      -1.49099396E-05
   44.2799988      -1.38491559E-05
   44.4000015      -1.27843714E-05
   44.5200005      -1.17173358E-05
   44.6399994      -1.06496645E-05
   44.7599983      -9.58280907E-06
   44.8800011      -8.51807363E-06
   45.0000000      -7.45669468E-06
   45.1199989      -6.39991958E-06
   45.2400017      -5.34907076E-06
   45.3600006      -4.30554019E-06
   45.4799995      -3.27072689E-06
   45.5999985      -2.24594169E-06
   45.7200012      -1.23232530E-06
   45.8400002      -2.30811295E-07
   45.9599991       7.57839587E-07
   46.0800018       1.73295916E-06
   46.2000008       2.69388102E-06
   46.3199997       3.63988420E-06
   46.4399986       4.57019632E-06
   46.5600014       5.48405615E-06
   46.6800003       6.38079564E-06
   46.7999992       7.25990367E-06
   46.9199982       8.12103735E-06
   47.0400009       8.96396796E-06
   47.1599998       9.78849766E-06
   47.2799988       1.05943700E-05
   47.4000015       1.13812330E-05
   47.5200005       1.21486673E-05
   47.6399994       1.28962556E-05
   47.7599983       1.36236777E-05
   47.8800011       1.43307716E-05
   48.0000000       1.50175338E-05
   48.1199989       1.56840724E-05
   48.2400017       1.63305176E-05
   48.3600006       1.69569521E-05
   48.4799995       1.75633868E-05
   48.5999985       1.81497744E-05
   48.7200012       1.87161022E-05
   48.8400002       1.92624502E-05
   48.9599991       1.97890386E-05
   49.0800018       2.02962074E-05
   49.2000008       2.07843696E-05
   49.3199997       2.12539053E-05
   49.4399986       2.17051129E-05
   49.5600014       2.21381833E-05
   49.6800003       2.25532604E-05
   49.7999992       2.29505076E-05
   49.9199982       2.33301853E-05
   50.0400009       2.36926899E-05
   50.1599998       2.40385380E-05
   50.2799988       2.43682898E-05
   50.4000015       2.46824438E-05
   50.5200005       2.49813711E-05
   50.6399994       2.52652990E-05
   50.7599983       2.55343621E-05
   50.8800011       2.57886968E-05
   51.0000000       2.60285360E-05
   51.1199989       2.62542817E-05
   51.2400017       2.64664923E-05
   51.3600006       2.66658208E-05
   51.4799995       2.68529075E-05
   51.5999985       2.70283017E-05
   51.7200012       2.71924309E-05
   51.8400002       2.73456189E-05
   51.9599991       2.74881641E-05
   52.0800018       2.76204137E-05
   52.2000008       2.77428171E-05
   52.3199997       2.78559237E-05
   52.4399986       2.79603009E-05
   52.5600014       2.80564509E-05
   52.6800003       2.81447337E-05
   52.7999992       2.82253495E-05
   52.9199982       2.82983892E-05
   53.0400009       2.83639365E-05
   53.1599998       2.84221824E-05
   53.2799988       2.84734851E-05
   53.4000015       2.85183978E-05
   53.5200005       2.85575643E-05
   53.6399994       2.85916085E-05
   53.7599983       2.86210161E-05
   53.8800011       2.86460690E-05
   54.0000000       2.86668619E-05
   54.1199989       2.86834002E-05
   54.2400017       2.86957311E-05
   54.3600006       2.87040548E-05
   54.4799995       2.87087641E-05
   54.5999985       2.87103958E-05
   54.7200012       2.87095263E-05
   54.8400002       2.87066214E-05
   54.9599991       2.87019557E-05
   55.0800018       2.86955965E-05
   55.2000008       2.86874783E-05
   55.3199997       2.86775266E-05
   55.4399986       2.86657832E-05
   55.5600014       2.86524501E-05
   55.6800003       2.86378763E-05
   55.7999992       2.86224349E-05
   55.9199982       2.86064260E-05
   56.0400009       2.85899860E-05
   56.1599998       2.85731021E-05
   56.2799988       2.85556944E-05
   56.4000015       2.85377446E-05
   56.5200005       2.85193946E-05
   56.6399994       2.85009792E-05
   56.7599983       2.84829475E-05
   56.8800011       2.84657199E-05
   57.0000000       2.84495436E-05
   57.1199989       2.84344096E-05
   57.2400017       2.84200742E-05
   57.3600006       2.84061825E-05
   57.4799995       2.83924201E-05
   57.5999985       2.83786612E-05
   57.7200012       2.83650079E-05
   57.8400002       2.83517456E-05
   57.9599991       2.83392164E-05
   58.0800018       2.83276822E-05
   58.2000008       2.83172430E-05
   58.3199997       2.83078389E-05
   58.4399986       2.82993260E-05
   58.5600014       2.82915826E-05
   58.6800003       2.82845849E-05
   58.7999992       2.82784258E-05
   58.9199982       2.82732326E-05
   59.0400009       2.82690889E-05
   59.1599998       2.82659603E-05
   59.2799988       2.82636720E-05
   59.4000015       2.82619803E-05
   59.5200005       2.82606834E-05
   59.6399994       2.82597157E-05
   59.7599983       2.82591755E-05
   59.8800011       2.82592828E-05
   60.0000000       2.82602705E-05
   60.1199989       2.82622568E-05
   60.2400017       2.82651690E-05
   60.3600006       2.82687524E-05
   60.4799995       2.82726633E-05
   60.5999985       2.82765959E-05
   60.7200012       2.82804031E-05
   60.8400002       2.82841229E-05
   60.9599991       2.82879428E-05
   61.0800018       2.82920737E-05
   61.2000008       2.82966412E-05
   61.3199997       2.83016107E-05
   61.4399986       2.83068002E-05
   61.5600014       2.83119607E-05
   61.6800003       2.83168974E-05
   61.7999992       2.83215522E-05
   61.9199982       2.83260124E-05
   62.0400009       2.83304380E-05
   62.1599998       2.83349418E-05
   62.2799988       2.83394620E-05
   62.4000015       2.83437330E-05
   62.5200005       2.83473273E-05
   62.6399994       2.83497920E-05
   62.7599983       2.83508271E-05
   62.8800011       2.83503850E-05
   63.0000000       2.83486916E-05
   63.1199989       2.83461704E-05
   63.2400017       2.83432564E-05
   63.3600006       2.83402223E-05
   63.4799995       2.83370719E-05
   63.5999985       2.83335394E-05
   63.7200012       2.83291829E-05
   63.8400002       2.83235586E-05
   63.9599991       2.83163627E-05
   64.0800018       2.83075224E-05
   64.1999969       2.82971596E-05
   64.3199997       2.82854944E-05
   64.4400024       2.82727106E-05
   64.5599976       2.82588680E-05
   64.6800003       2.82438741E-05
   64.8000031       2.82275614E-05
   64.9199982       2.82097826E-05
   65.0400009       2.81905050E-05
   65.1600037       2.81698303E-05
   65.2799988       2.81479442E-05
   65.4000015       2.81249959E-05
   65.5199966       2.81010107E-05
   65.6399994       2.80758268E-05
   65.7600021       2.80491367E-05
   65.8799973       2.80206132E-05
   66.0000000       2.79900323E-05
   66.1200027       2.79573869E-05
   66.2399979       2.79229025E-05
   66.3600006       2.78869320E-05
   66.4800034       2.78498337E-05
   66.5999985       2.78117932E-05
   66.7200012       2.77727722E-05
   66.8399963       2.77325071E-05
   66.9599991       2.76906430E-05
   67.0800018       2.76468745E-05
   67.1999969       2.76010833E-05
   67.3199997       2.75533785E-05
   67.4400024       2.75040493E-05
   67.5599976       2.74534359E-05
   67.6800003       2.74017930E-05
   67.8000031       2.73491987E-05
   67.9199982       2.72955513E-05
   68.0400009       2.72406178E-05
   68.1600037       2.71841673E-05
   68.2799988       2.71260560E-05
   68.4000015       2.70662767E-05
   68.5199966       2.70049441E-05
   68.6399994       2.69422217E-05
   68.7600021       2.68782660E-05
   68.8799973       2.68131607E-05
   69.0000000       2.67469350E-05
   69.1200027       2.66795905E-05
   69.2399979       2.66111492E-05
   69.3600006       2.65416838E-05
   69.4800034       2.64713108E-05
   69.5999985       2.64001501E-05
   69.7200012       2.63282782E-05
   69.8399963       2.62557041E-05
   69.9599991       2.61823643E-05
   70.0800018       2.61081750E-05
   70.1999969       2.60330726E-05
   70.3199997       2.59570588E-05
   70.4400024       2.58801865E-05
   70.5599976       2.58025593E-05
   70.6800003       2.57242627E-05
   70.8000031       2.56453623E-05
   70.9199982       2.55658815E-05
   71.0400009       2.54858423E-05
   71.1600037       2.54052957E-05
   71.2799988       2.53243543E-05
   71.4000015       2.52431691E-05
   71.5199966       2.51618876E-05
   71.6399994       2.50805988E-05
   71.7600021       2.49992772E-05
   71.8799973       2.49177901E-05
   72.0000000       2.48359356E-05
   72.1200027       2.47535281E-05
   72.2399979       2.46704913E-05
   72.3600006       2.45868996E-05
   72.4800034       2.45029623E-05
   72.5999985       2.44189523E-05
   72.7200012       2.43351114E-05