  -30.0000000       0.00000000    
  -29.8799992       0.00000000    
  -29.7600002       0.00000000    
  -29.6399994      -9.26804326E-17
  -29.5200005      -4.16668874E-16
  -29.3999996      -8.07903466E-16
  -29.2800007      -3.67772362E-16
  -29.1599998       2.50133848E-15
  -29.0400009       9.15312443E-15
  -28.9200001       1.89926708E-14
  -28.7999992       2.78181629E-14
  -28.6800003       2.72835021E-14
  -28.5599995       6.32975482E-15
  -28.4400005      -4.49452487E-14
  -28.3199997      -1.28756706E-13
  -28.2000008      -2.30723779E-13
  -28.0799999      -3.10647802E-13
  -27.9599991      -2.98656363E-13
  -27.8400002      -1.06323350E-13
  -27.7199993       3.37510402E-13
  -27.6000004       1.02507672E-12
  -27.4799995       1.79975197E-12
  -27.3600006       2.31799974E-12
  -27.2399998       2.09523718E-12
  -27.1200008       6.72034477E-13
  -27.0000000      -2.11416865E-12
  -26.8799992      -5.84154817E-12
  -26.7600002      -9.35425088E-12
  -26.6399994      -1.09114497E-11
  -26.5200005      -8.71339372E-12
  -26.3999996      -1.71694462E-12
  -26.2800007       9.53769876E-12
  -26.1599998       2.24874477E-11
  -26.0400009       3.28500317E-11
  -25.9200001       3.57888649E-11
  -25.7999992       2.76837563E-11
  -25.6800003       7.89480894E-12
  -25.5599995      -2.02503413E-11
  -25.4400005      -4.98442954E-11
  -25.3199997      -7.22688229E-11
  -25.2000008      -8.00094505E-11
  -25.0799999      -6.93708216E-11
  -24.9599991      -4.19402638E-11
  -24.8400002      -4.06160348E-12
  -24.7199993       3.55988711E-11
  -24.6000004       6.94205249E-11
  -24.4799995       9.36135822E-11
  -24.3600006       1.09021514E-10
  -24.2399998       1.19354818E-10
  -24.1200008       1.27488062E-10
  -24.0000000       1.31544262E-10
  -23.8799992       1.22919785E-10
  -23.7600002       8.78677200E-11
  -23.6399994       1.28642531E-11
  -23.5200005      -1.07763701E-10
  -23.3999996      -2.64845562E-10
  -23.2800007      -4.31261554E-10
  -23.1599998      -5.65031688E-10
  -23.0400009      -6.18876950E-10
  -22.9200001      -5.54100155E-10
  -22.7999992      -3.54686197E-10
  -22.6800003      -3.68448085E-11
  -22.5599995       3.49833190E-10
  -22.4400005       7.31059546E-10
  -22.3199997       1.02474396E-09
  -22.2000008       1.16169363E-09
  -22.0799999       1.10418130E-09
  -21.9599991       8.56759386E-10
  -21.8400002       4.65833538E-10
  -21.7199993       7.84833830E-12
  -21.6000004      -4.30557062E-10
  -21.4799995      -7.74562192E-10
  -21.3600006      -9.78825465E-10
  -21.2399998      -1.03571773E-09
  -21.1200008      -9.72145808E-10
  -21.0000000      -8.36668623E-10
  -20.8799992      -6.81619761E-10
  -20.7600002      -5.46257373E-10
  -20.6399994      -4.46164106E-10
  -20.5200005      -3.71603581E-10
  -20.3999996      -2.94306635E-10
  -20.2800007      -1.79433482E-10
  -20.1599998       1.83922929E-12
  -20.0400009       2.63233518E-10
  -19.9200001       6.00184624E-10
  -19.7999992       9.92782967E-10
  -19.6800003       1.41333278E-09
  -19.5599995       1.83619109E-09
  -19.4400005       2.24757479E-09
  -19.3199997       2.65345479E-09
  -19.2000008       3.08402770E-09
  -19.0799999       3.59338892E-09
  -18.9599991       4.25324176E-09
  -18.8400002       5.14024734E-09
  -18.7199993       6.31828012E-09
  -18.6000004       7.81915244E-09
  -18.4799995       9.62743485E-09
  -18.3600006       1.16755530E-08
  -18.2399998       1.38536187E-08
  -18.1200008       1.60342903E-08
  -18.0000000       1.81076842E-08
  -17.8799992       2.00168557E-08
  -17.7600002       2.17827587E-08
  -17.6399994       2.35098447E-08
  -17.5200005       2.53692107E-08
  -17.3999996       2.75634946E-08
  -17.2800007       3.02836689E-08
  -17.1599998       3.36702684E-08
  -17.0400009       3.77896079E-08
  -16.9200001       4.26297397E-08
  -16.7999992       4.81143374E-08
  -16.6800003       5.41272449E-08
  -16.5599995       6.05389161E-08
  -16.4400005       6.72279938E-08
  -16.3199997       7.40953823E-08
  -16.2000008       8.10723861E-08
  -16.0799999       8.81264626E-08
  -15.9600000       9.52667421E-08
  -15.8400002       1.02549016E-07
  -15.7200003       1.10076392E-07
  -15.6000004       1.17991604E-07
  -15.4799995       1.26458900E-07
  -15.3599997       1.35638231E-07
  -15.2399998       1.45658959E-07
  -15.1199999       1.56602411E-07
  -15.0000000       1.68500549E-07
  -14.8800001       1.81352533E-07
  -14.7600002       1.95153973E-07
  -14.6400003       2.09928359E-07
  -14.5200005       2.25749474E-07
  -14.3999996       2.42747035E-07
  -14.2799997       2.61095380E-07
  -14.1599998       2.80991486E-07
  -14.0400000       3.02632088E-07
  -13.9200001       3.26198659E-07
  -13.8000002       3.51852947E-07
  -13.6800003       3.79739902E-07
  -13.5600004       4.09989411E-07
  -13.4399996       4.42711013E-07
  -13.3199997       4.77979029E-07
  -13.1999998       5.15815088E-07
  -13.0799999       5.56179543E-07
  -12.9600000       5.98984229E-07
  -12.8400002       6.44130978E-07
  -12.7200003       6.91570335E-07
  -12.6000004       7.41365227E-07
  -12.4799995       7.93737172E-07
  -12.3599997       8.49076912E-07
  -12.2399998       9.07911954E-07
  -12.1199999       9.70837732E-07
  -12.0000000       1.03843297E-06
  -11.8800001       1.11118140E-06
  -11.7600002       1.18942580E-06
  -11.6400003       1.27336057E-06
  -11.5200005       1.36306176E-06
  -11.3999996       1.45854131E-06
  -11.2799997       1.55980479E-06
  -11.1599998       1.66690097E-06
  -11.0400000       1.77995287E-06
  -10.9200001       1.89917421E-06
  -10.8000002       2.02487604E-06
  -10.6800003       2.15746763E-06
  -10.5600004       2.29745683E-06
  -10.4399996       2.44543958E-06
  -10.3199997       2.60208139E-06
  -10.1999998       2.76808169E-06
  -10.0799999       2.94412871E-06
  -9.96000004       3.13085820E-06
  -9.84000015       3.32882905E-06
  -9.72000027       3.53852852E-06
  -9.60000038       3.76040907E-06
  -9.47999954       3.99494729E-06
  -9.35999966       4.24269956E-06
  -9.23999977       4.50434254E-06
  -9.11999989       4.78066931E-06
  -9.00000000       5.07255299E-06
  -8.88000011       5.38088307E-06
  -8.76000023       5.70650309E-06
  -8.64000034       6.05017567E-06
  -8.52000046       6.41258384E-06
  -8.39999962       6.79438153E-06
  -8.27999973       7.19625859E-06
  -8.15999985       7.61900674E-06
  -8.03999996       8.06356184E-06
  -7.92000008       8.53100391E-06
  -7.80000019       9.02251213E-06
  -7.67999983       9.53931794E-06
  -7.55999994       1.00826446E-05
  -7.44000006       1.06536918E-05
  -7.32000017       1.12536300E-05
  -7.19999981       1.18836388E-05
  -7.07999992       1.25449369E-05
  -6.96000004       1.32388086E-05
  -6.84000015       1.39665990E-05
  -6.71999979       1.47296923E-05
  -6.59999990       1.55294874E-05
  -6.48000002       1.63673831E-05
  -6.36000013       1.72447908E-05
  -6.23999977       1.81631731E-05
  -6.11999989       1.91240742E-05
  -6.00000000       2.01291732E-05
  -5.88000011       2.11802653E-05
  -5.76000023       2.22792369E-05
  -5.63999987       2.34279905E-05
  -5.51999998       2.46283853E-05
  -5.40000010       2.58821983E-05
  -5.28000021       2.71911449E-05
  -5.15999985       2.85569131E-05
  -5.03999996       2.99812746E-05
  -4.92000008       3.14661265E-05
  -4.80000019       3.30135517E-05
  -4.67999983       3.46257948E-05
  -4.55999994       3.63051840E-05
  -4.44000006       3.80540332E-05
  -4.32000017       3.98745869E-05
  -4.19999981       4.17689735E-05
  -4.07999992       4.37392300E-05
  -3.96000004       4.57873466E-05
  -3.83999991       4.79153714E-05
  -3.72000003       5.01254544E-05
  -3.59999990       5.24198767E-05
  -3.48000002       5.48010466E-05
  -3.35999990       5.72714198E-05
  -3.24000001       5.98334955E-05
  -3.11999989       6.24897802E-05
  -3.00000000       6.52427698E-05
  -2.88000011       6.80949524E-05
  -2.75999999       7.10488093E-05
  -2.64000010       7.41068579E-05
  -2.51999998       7.72715794E-05
  -2.40000010       8.05453892E-05
  -2.27999997       8.39306231E-05
  -2.16000009       8.74295001E-05
  -2.03999996       9.10441377E-05
  -1.91999996       9.47765948E-05
  -1.79999995       9.86289670E-05
  -1.67999995       1.02603393E-04
  -1.55999994       1.06702108E-04
  -1.44000006       1.10927460E-04
  -1.32000005       1.15281800E-04
  -1.20000005       1.19767508E-04
  -1.08000004       1.24386817E-04
 -0.959999979       1.29141874E-04
 -0.839999974       1.34034635E-04
 -0.720000029       1.39066964E-04
 -0.600000024       1.44240636E-04
 -0.479999989       1.49557338E-04
 -0.360000014       1.55018701E-04
 -0.239999995       1.60626296E-04
 -0.119999997       1.66381622E-04
  -1.11022302E-15   1.72285989E-04
  0.119999997       1.78340546E-04
  0.239999995       1.84546210E-04
  0.360000014       1.90903753E-04
  0.479999989       1.97413756E-04
  0.600000024       2.04076729E-04
  0.720000029       2.10893078E-04
  0.839999974       2.17863097E-04
  0.959999979       2.24987089E-04
   1.08000004       2.32265156E-04
   1.20000005       2.39697241E-04
   1.32000005       2.47283082E-04
   1.44000006       2.55022314E-04
   1.55999994       2.62914400E-04
   1.67999995       2.70958582E-04
   1.79999995       2.79153959E-04
   1.91999996       2.87499337E-04
   2.03999996       2.95993377E-04
   2.16000009       3.04634363E-04
   2.27999997       3.13420256E-04
   2.40000010       3.22348700E-04
   2.51999998       3.31417075E-04
   2.64000010       3.40622588E-04
   2.75999999       3.49962153E-04
   2.88000011       3.59432684E-04
   3.00000000       3.69030662E-04
   3.11999989       3.78752389E-04
   3.24000001       3.88593849E-04
   3.35999990       3.98550736E-04
   3.48000002       4.08618391E-04
   3.59999990       4.18791897E-04
   3.72000003       4.29066189E-04
   3.83999991       4.39435855E-04
   3.96000004       4.49895335E-04
   4.07999992       4.60438809E-04
   4.19999981       4.71060281E-04
   4.32000017       4.81753319E-04
   4.44000006       4.92511026E-04
   4.55999994       5.03326417E-04
   4.67999983       5.14191925E-04
   4.80000019       5.25099924E-04
   4.92000008       5.36042266E-04
   5.03999996       5.47010684E-04
   5.15999985       5.57996740E-04
   5.28000021       5.68991702E-04
   5.40000010       5.79986547E-04
   5.51999998       5.90972020E-04
   5.63999987       6.01938751E-04
   5.76000023       6.12876902E-04
   5.88000011       6.23776577E-04
   6.00000000       6.34627591E-04
   6.11999989       6.45419233E-04
   6.23999977       6.56140852E-04
   6.36000013       6.66781329E-04
   6.48000002       6.77329372E-04
   6.59999990       6.87773630E-04
   6.71999979       6.98102464E-04
   6.84000015       7.08304113E-04
   6.96000004       7.18366704E-04
   7.07999992       7.28278188E-04
   7.19999981       7.38026574E-04
   7.32000017       7.47599581E-04
   7.44000006       7.56984809E-04
   7.55999994       7.66169804E-04
   7.67999983       7.75141933E-04
   7.80000019       7.83888623E-04
   7.92000008       7.92397070E-04
   8.03999996       8.00654525E-04
   8.15999985       8.08648299E-04
   8.27999973       8.16365762E-04
   8.39999962       8.23794224E-04
   8.52000046       8.30921228E-04
   8.64000034       8.37734202E-04
   8.76000023       8.44220805E-04
   8.88000011       8.50368757E-04
   9.00000000       8.56165658E-04
   9.11999989       8.61599401E-04
   9.23999977       8.66658171E-04
   9.35999966       8.71329976E-04
   9.47999954       8.75603408E-04
   9.60000038       8.79467174E-04
   9.72000027       8.82910041E-04
   9.84000015       8.85921123E-04
   9.96000004       8.88489652E-04
   10.0799999       8.90605268E-04
   10.1999998       8.92258016E-04
   10.3199997       8.93438351E-04
   10.4399996       8.94137018E-04
   10.5600004       8.94345460E-04
   10.6800003       8.94055353E-04
   10.8000002       8.93258839E-04
   10.9200001       8.91948526E-04
   11.0400000       8.90117430E-04
   11.1599998       8.87758913E-04
   11.2799997       8.84867099E-04
   11.3999996       8.81436397E-04
   11.5200005       8.77461745E-04
   11.6400003       8.72938428E-04
   11.7600002       8.67862487E-04
   11.8800001       8.62230256E-04
   12.0000000       8.56038823E-04
   12.1199999       8.49285861E-04
   12.2399998       8.41969682E-04
   12.3599997       8.34089529E-04
   12.4799995       8.25645344E-04
   12.6000004       8.16637592E-04
   12.7200003       8.07067670E-04
   12.8400002       7.96937500E-04
   12.9600000       7.86249642E-04
   13.0799999       7.75007182E-04
   13.1999998       7.63213902E-04
   13.3199997       7.50874286E-04
   13.4399996       7.37993279E-04
   13.5600004       7.24576646E-04
   13.6800003       7.10630789E-04
   13.8000002       6.96162693E-04
   13.9200001       6.81180099E-04
   14.0400000       6.65691390E-04
   14.1599998       6.49705704E-04
   14.2799997       6.33233110E-04
   14.3999996       6.16284262E-04
   14.5200005       5.98870625E-04
   14.6400003       5.81004482E-04
   14.7600002       5.62698697E-04
   14.8800001       5.43966598E-04
   15.0000000       5.24822099E-04
   15.1199999       5.05279459E-04
   15.2399998       4.85353637E-04
   15.3599997       4.65059828E-04
   15.4799995       4.44413919E-04
   15.6000004       4.23432473E-04
   15.7200003       4.02132486E-04
   15.8400002       3.80531594E-04
   15.9600000       3.58647871E-04
   16.0799999       3.36499797E-04
   16.2000008       3.14106379E-04
   16.3199997       2.91486824E-04
   16.4400005       2.68660893E-04
   16.5599995       2.45648669E-04
   16.6800003       2.22470451E-04
   16.7999992       1.99146933E-04
   16.9200001       1.75698980E-04
   17.0400009       1.52147695E-04
   17.1599998       1.28514352E-04
   17.2800007       1.04820429E-04
   17.3999996       8.10874772E-05
   17.5200005       5.73372126E-05
   17.6399994       3.35913865E-05
   17.7600002       9.87176099E-06
   17.8799992      -1.37999668E-05
   18.0000000      -3.74021438E-05
   18.1200008      -6.09132112E-05
   18.2399998      -8.43117014E-05
   18.3600006      -1.07576176E-04
   18.4799995      -1.30685192E-04
   18.6000004      -1.53617439E-04
   18.7199993      -1.76351663E-04
   18.8400002      -1.98866925E-04
   18.9599991      -2.21142633E-04
   19.0799999      -2.43158764E-04
   19.2000008      -2.64895731E-04
   19.3199997      -2.86334485E-04
   19.4400005      -3.07456416E-04
   19.5599995      -3.28243361E-04
   19.6800003      -3.48677422E-04
   19.7999992      -3.68741079E-04
   19.9200001      -3.88417160E-04
   20.0400009      -4.07688989E-04
   20.1599998      -4.26540471E-04
   20.2800007      -4.44956037E-04
   20.3999996      -4.62920900E-04
   20.5200005      -4.80420917E-04
   20.6399994      -4.97442437E-04
   20.7600002      -5.13972598E-04
   20.8799992      -5.29999204E-04
   21.0000000      -5.45510906E-04
   21.1200008      -5.60496992E-04
   21.2399998      -5.74947742E-04
   21.3600006      -5.88854018E-04
   21.4799995      -6.02207554E-04
   21.6000004      -6.15000725E-04
   21.7199993      -6.27226720E-04
   21.8400002      -6.38879079E-04
   21.9599991      -6.49952213E-04
   22.0799999      -6.60441234E-04
   22.2000008      -6.70342124E-04
   22.3199997      -6.79651566E-04
   22.4400005      -6.88367116E-04
   22.5599995      -6.96487201E-04
   22.6800003      -7.04011065E-04
   22.7999992      -7.10938592E-04
   22.9200001      -7.17270770E-04
   23.0400009      -7.23009114E-04
   23.1599998      -7.28156127E-04
   23.2800007      -7.32714892E-04
   23.3999996      -7.36689428E-04
   23.5200005      -7.40084506E-04
   23.6399994      -7.42905249E-04
   23.7600002      -7.45157769E-04
   23.8799992      -7.46848178E-04
   24.0000000      -7.47983402E-04
   24.1200008      -7.48571125E-04
   24.2399998      -7.48619379E-04
   24.3600006      -7.48136954E-04
   24.4799995      -7.47133337E-04
   24.6000004      -7.45618832E-04
   24.7199993      -7.43604149E-04
   24.8400002      -7.41100579E-04
   24.9599991      -7.38119765E-04
   25.0799999      -7.34673697E-04
   25.2000008      -7.30774715E-04
   25.3199997      -7.26435799E-04
   25.4400005      -7.21670163E-04
   25.5599995      -7.16491661E-04
   25.6800003      -7.10914435E-04
   25.7999992      -7.04952923E-04
   25.9200001      -6.98621618E-04
   26.0400009      -6.91935420E-04
   26.1599998      -6.84909173E-04
   26.2800007      -6.77557779E-04
   26.3999996      -6.69896486E-04
   26.5200005      -6.61940547E-04
   26.6399994      -6.53705385E-04
   26.7600002      -6.45206892E-04
   26.8799992      -6.36460842E-04
   27.0000000      -6.27483008E-04
   27.1200008      -6.18289167E-04
   27.2399998      -6.08894858E-04
   27.3600006      -5.99315681E-04
   27.4799995      -5.89567120E-04
   27.6000004      -5.79664484E-04
   27.7199993      -5.69623138E-04
   27.8400002      -5.59458160E-04
   27.9599991      -5.49184741E-04
   28.0799999      -5.38817723E-04
   28.2000008      -5.28371718E-04
   28.3199997      -5.17861045E-04
   28.4400005      -5.07299963E-04
   28.5599995      -4.96702152E-04
   28.6800003      -4.86081321E-04
   28.7999992      -4.75450885E-04
   28.9200001      -4.64823854E-04
   29.0400009      -4.54213034E-04
   29.1599998      -4.43630648E-04
   29.2800007      -4.33088455E-04
   29.3999996      -4.22597659E-04
   29.5200005      -4.12169116E-04
   29.6399994      -4.01813188E-04
   29.7600002      -3.91540059E-04
   29.8799992      -3.81359714E-04
   30.0000000      -3.71281960E-04
   30.1200008      -3.61316139E-04
   30.2399998      -3.51471361E-04
   30.3600006      -3.41756095E-04
   30.4799995      -3.32178257E-04
   30.6000004      -3.22745240E-04
   30.7199993      -3.13463795E-04
   30.8400002      -3.04340268E-04
   30.9599991      -2.95380654E-04
   31.0799999      -2.86590512E-04
   31.2000008      -2.77975079E-04
   31.3199997      -2.69539130E-04
   31.4400005      -2.61286943E-04
   31.5599995      -2.53222388E-04
   31.6800003      -2.45348754E-04
   31.7999992      -2.37668981E-04
   31.9200001      -2.30185571E-04
   32.0400009      -2.22900737E-04
   32.1599998      -2.15816413E-04
   32.2799988      -2.08934172E-04
   32.4000015      -2.02255324E-04
   32.5200005      -1.95780827E-04
   32.6399994      -1.89511265E-04
   32.7599983      -1.83446798E-04
   32.8800011      -1.77587252E-04
   33.0000000      -1.71932043E-04
   33.1199989      -1.66480138E-04
   33.2400017      -1.61230157E-04
   33.3600006      -1.56180351E-04
   33.4799995      -1.51328626E-04
   33.5999985      -1.46672639E-04
   33.7200012      -1.42209872E-04
   33.8400002      -1.37937663E-04
   33.9599991      -1.33853260E-04
   34.0800018      -1.29953798E-04
   34.2000008      -1.26236278E-04
   34.3199997      -1.22697485E-04
   34.4399986      -1.19333992E-04
   34.5600014      -1.16142081E-04
   34.6800003      -1.13117851E-04
   34.7999992      -1.10257191E-04
   34.9199982      -1.07555854E-04
   35.0400009      -1.05009502E-04
   35.1599998      -1.02613725E-04
   35.2799988      -1.00364035E-04
   35.4000015      -9.82558195E-05
   35.5200005      -9.62843624E-05
   35.6399994      -9.44448402E-05
   35.7599983      -9.27323199E-05
   35.8800011      -9.11418683E-05
   36.0000000      -8.96685742E-05
   36.1199989      -8.83076282E-05
   36.2400017      -8.70543008E-05
   36.3600006      -8.59039792E-05
   36.4799995      -8.48520722E-05
   36.5999985      -8.38939523E-05
   36.7200012      -8.30248973E-05
   36.8400002      -8.22400980E-05
   36.9599991      -8.15346866E-05
   37.0800018      -8.09038320E-05
   37.2000008      -8.03427902E-05
   37.3199997      -7.98470501E-05
   37.4399986      -7.94122971E-05
   37.5600014      -7.90344129E-05
   37.6800003      -7.87093886E-05
   37.7999992      -7.84332588E-05
   37.9199982      -7.82019561E-05
   38.0400009      -7.80114060E-05
   38.1599998      -7.78575122E-05
   38.2799988      -7.77362584E-05
   38.4000015      -7.76438465E-05
   38.5200005      -7.75766894E-05
   38.6399994      -7.75314838E-05
   38.7599983      -7.75051012E-05
   38.8800011      -7.74945438E-05
   39.0000000      -7.74968357E-05
   39.1199989      -7.75089939E-05
   39.2400017      -7.75280641E-05
   39.3600006      -7.75512162E-05
   39.4799995      -7.75757726E-05
   39.5999985      -7.75993321E-05
   39.7200012      -7.76197776E-05
   39.8400002      -7.76351662E-05
   39.9599991      -7.76437009E-05
   40.0800018      -7.76435918E-05
   40.2000008      -7.76329834E-05
   40.3199997      -7.76100060E-05
   40.4399986      -7.75727822E-05
   40.5600014      -7.75195440E-05
   40.6800003      -7.74487635E-05
   40.7999992      -7.73592037E-05
   40.9199982      -7.72499188E-05
   41.0400009      -7.71202322E-05
   41.1599998      -7.69695616E-05
   41.2799988      -7.67973615E-05
   41.4000015      -7.66029916E-05
   41.5200005      -7.63857533E-05
   41.6399994      -7.61448900E-05
   41.7599983      -7.58797614E-05
   41.8800011      -7.55899091E-05
   42.0000000      -7.52751075E-05
   42.1199989      -7.49353785E-05
   42.2400017      -7.45708821E-05
   42.3600006      -7.41818512E-05
   42.4799995      -7.37684823E-05
   42.5999985      -7.33308771E-05
   42.7200012      -7.28690939E-05
   42.8400002      -7.23832418E-05
   42.9599991      -7.18735537E-05
   43.0800018      -7.13404079E-05
   43.2000008      -7.07844156E-05
   43.3199997      -7.02062680E-05
   43.4399986      -6.96066709E-05
   43.5600014      -6.89862864E-05
   43.6800003      -6.83456819E-05
   43.7999992      -6.76853815E-05
   43.9199982      -6.70059235E-05
   44.0400009      -6.63079772E-05
   44.1599998      -6.55923723E-05
   44.2799988      -6.48600835E-05
   44.4000015      -6.41121806E-05
   44.5200005      -6.33496966E-05
   44.6399994      -6.25735993E-05
   44.7599983      -6.17846890E-05
   44.8800011      -6.09836970E-05
   45.0000000      -6.01713073E-05
   45.1199989      -5.93482437E-05
   45.2400017      -5.85153284E-05
   45.3600006      -5.76734856E-05
   45.4799995      -5.68237083E-05
   45.5999985      -5.59670261E-05
   45.7200012      -5.51044395E-05
   45.8400002      -5.42369235E-05
   45.9599991      -5.33654020E-05
   46.0800018      -5.24908100E-05
   46.2000008      -5.16140790E-05
   46.3199997      -5.07361510E-05
   46.4399986      -4.98579429E-05
   46.5600014      -4.89803242E-05
   46.6800003      -4.81040770E-05
   46.7999992      -4.72298780E-05
   46.9199982      -4.63583528E-05
   47.0400009      -4.54900983E-05
   47.1599998      -4.46257473E-05
   47.2799988      -4.37659946E-05
   47.4000015      -4.29116189E-05
   47.5200005      -4.20634242E-05
   47.6399994      -4.12222216E-05
   47.7599983      -4.03887570E-05
   47.8800011      -3.95636853E-05
   48.0000000      -3.87475775E-05
   48.1199989      -3.79409576E-05
   48.2400017      -3.71443202E-05
   48.3600006      -3.63581858E-05
   48.4799995      -3.55830853E-05
   48.5999985      -3.48195317E-05
   48.7200012      -3.40680053E-05
   48.8400002      -3.33288845E-05
   48.9599991      -3.26024747E-05
   49.0800018      -3.18890088E-05
   49.2000008      -3.11886979E-05
   49.3199997      -3.05017966E-05
   49.4399986      -2.98286086E-05
   49.5600014      -2.91695069E-05
   49.6800003      -2.85248698E-05
   49.7999992      -2.78950374E-05
   49.9199982      -2.72802317E-05
   50.0400009      -2.66805346E-05
   50.1599998      -2.60959205E-05
   50.2799988      -2.55262948E-05
   50.4000015      -2.49715831E-05
   50.5200005      -2.44317962E-05
   50.6399994      -2.39070523E-05
   50.7599983      -2.33975552E-05
   50.8800011      -2.29035359E-05
   51.0000000      -2.24251635E-05
   51.1199989      -2.19624926E-05
   51.2400017      -2.15154287E-05
   51.3600006      -2.10837698E-05
   51.4799995      -2.06672630E-05
   51.5999985      -2.02656702E-05
   51.7200012      -1.98788384E-05
   51.8400002      -1.95066914E-05
   51.9599991      -1.91492109E-05
   52.0800018      -1.88063659E-05
   52.2000008      -1.84780565E-05
   52.3199997      -1.81640771E-05
   52.4399986      -1.78641167E-05
   52.5600014      -1.75778132E-05
   52.6800003      -1.73048156E-05
   52.7999992      -1.70448311E-05
   52.9199982      -1.67976650E-05
   53.0400009      -1.65631791E-05
   53.1599998      -1.63412406E-05
   53.2799988      -1.61316730E-05
   53.4000015      -1.59342035E-05
   53.5200005      -1.57484719E-05
   53.6399994      -1.55740854E-05
   53.7599983      -1.54106710E-05
   53.8800011      -1.52579432E-05
   54.0000000      -1.51157165E-05
   54.1199989      -1.49838652E-05
   54.2400017      -1.48622557E-05
   54.3600006      -1.47506644E-05
   54.4799995      -1.46487309E-05
   54.5999985      -1.45559598E-05
   54.7200012      -1.44717869E-05
   54.8400002      -1.43956649E-05
   54.9599991      -1.43271509E-05
   55.0800018      -1.42659437E-05
   55.2000008      -1.42118733E-05
   55.3199997      -1.41648352E-05
   55.4399986      -1.41247074E-05
   55.5600014      -1.40912880E-05
   55.6800003      -1.40642769E-05
   55.7999992      -1.40433012E-05
   55.9199982      -1.40279744E-05
   56.0400009      -1.40179518E-05
   56.1599998      -1.40129559E-05
   56.2799988      -1.40127540E-05
   56.4000015      -1.40171151E-05
   56.5200005      -1.40257589E-05
   56.6399994      -1.40383308E-05
   56.7599983      -1.40544107E-05
   56.8800011      -1.40735710E-05
   57.0000000      -1.40954362E-05
   57.1199989      -1.41197334E-05
   57.2400017      -1.41463006E-05
   57.3600006      -1.41750552E-05
   57.4799995      -1.42059298E-05
   57.5999985      -1.42388035E-05
   57.7200012      -1.42734661E-05
   57.8400002      -1.43096158E-05
   57.9599991      -1.43468960E-05
   58.0800018      -1.43849456E-05
   58.2000008      -1.44234546E-05
   58.3199997      -1.44621799E-05
   58.4399986      -1.45009444E-05
   58.5600014      -1.45396089E-05
   58.6800003      -1.45780450E-05
   58.7999992      -1.46161210E-05
   58.9199982      -1.46537031E-05
   59.0400009      -1.46906659E-05
   59.1599998      -1.47269075E-05
   59.2799988      -1.47623332E-05
   59.4000015      -1.47968285E-05
   59.5200005      -1.48302252E-05
   59.6399994      -1.48622730E-05
   59.7599983      -1.48926565E-05
   59.8800011      -1.49210291E-05
   60.0000000      -1.49470970E-05
   60.1199989      -1.49706802E-05
   60.2400017      -1.49917532E-05
   60.3600006      -1.50104306E-05
   60.4799995      -1.50268934E-05
   60.5999985      -1.50413007E-05
   60.7200012      -1.50537044E-05
   60.8400002      -1.50640153E-05
   60.9599991      -1.50720234E-05
   61.0800018      -1.50774740E-05
   61.2000008      -1.50801552E-05
   61.3199997      -1.50799524E-05
   61.4399986      -1.50768601E-05
   61.5600014      -1.50709320E-05
   61.6800003      -1.50622072E-05
   61.7999992      -1.50506385E-05
   61.9199982      -1.50360747E-05
   62.0400009      -1.50183023E-05
   62.1599998      -1.49971165E-05
   62.2799988      -1.49724210E-05
   62.4000015      -1.49442740E-05
   62.5200005      -1.49128773E-05
   62.6399994      -1.48785048E-05
   62.7599983      -1.48414001E-05
   62.8800011      -1.48016852E-05
   63.0000000      -1.47593219E-05
   63.1199989      -1.47141291E-05
   63.2400017      -1.46658758E-05
   63.3600006      -1.46143666E-05
   63.4799995      -1.45595213E-05
   63.5999985      -1.45013928E-05
   63.7200012      -1.44401365E-05
   63.8400002      -1.43759426E-05
   63.9599991      -1.43089628E-05
   64.0800018      -1.42392764E-05
   64.1999969      -1.41668916E-05
   64.3199997      -1.40917855E-05
   64.4400024      -1.40139546E-05
   64.5599976      -1.39334470E-05
   64.6800003      -1.38503701E-05
   64.8000031      -1.37648549E-05
   64.9199982      -1.36770104E-05
   65.0400009      -1.35868931E-05
   65.1600037      -1.34945003E-05
   65.2799988      -1.33997992E-05
   65.4000015      -1.33027706E-05
   65.5199966      -1.32034656E-05
   65.6399994      -1.31020179E-05
   65.7600021      -1.29986292E-05
   65.8799973      -1.28935235E-05
   66.0000000      -1.27868798E-05
   66.1200027      -1.26787891E-05
   66.2399979      -1.25692377E-05
   66.3600006      -1.24581366E-05
   66.4800034      -1.23453756E-05
   66.5999985      -1.22308902E-05
   66.7200012      -1.21147104E-05
   66.8399963      -1.19969682E-05
   66.9599991      -1.18778798E-05
   67.0800018      -1.17576965E-05
   67.1999969      -1.16366482E-05
   67.3199997      -1.15149123E-05
   67.4400024      -1.13925971E-05
   67.5599976      -1.12697608E-05
   67.6800003      -1.11464315E-05
   67.8000031      -1.10226365E-05
   67.9199982      -1.08984177E-05
   68.0400009      -1.07738324E-05
   68.1600037      -1.06489379E-05
   68.2799988      -1.05237896E-05
   68.4000015      -1.03984330E-05
   68.5199966      -1.02729146E-05
   68.6399994      -1.01472924E-05
   68.7600021      -1.00216494E-05
   68.8799973      -9.89609362E-06
   69.0000000      -9.77075433E-06
   69.1200027      -9.64576157E-06
   69.2399979      -9.52122718E-06
   69.3600006      -9.39724305E-06
   69.4800034      -9.27387464E-06
   69.5999985      -9.15117562E-06
   69.7200012      -9.02919601E-06
   69.8399963      -8.90799129E-06
   69.9599991      -8.78762603E-06
   70.0800018      -8.66816481E-06
   70.1999969      -8.54967766E-06
   70.3199997      -8.43223643E-06
   70.4400024      -8.31592570E-06
   70.5599976      -8.20084642E-06
   70.6800003      -8.08711775E-06
   70.8000031      -7.97485791E-06
   70.9199982      -7.86415603E-06
   71.0400009      -7.75504577E-06
   71.1600037      -7.64749166E-06
   71.2799988      -7.54139273E-06
   71.4000015      -7.43662849E-06
   71.5199966      -7.33310753E-06
   71.6399994      -7.23081939E-06
   71.7600021      -7.12985639E-06
   71.8799973      -7.03039814E-06
   72.0000000      -6.93265838E-06
   72.1200027      -6.83682038E-06
   72.2399979      -6.74297644E-06
   72.3600006      -6.65110792E-06
   72.4800034      -6.56111024E-06
   72.5999985      -6.47284924E-06
   72.7200012      -6.38622760E-06