  -30.0000000       0.00000000    
  -29.8799992       0.00000000    
  -29.7600002       0.00000000    
  -29.6399994       0.00000000    
  -29.5200005       0.00000000    
  -29.3999996       0.00000000    
  -29.2800007       2.38220739E-44
  -29.1599998       2.12997367E-43
  -29.0400009       1.00893489E-42
  -28.9200001       3.85497208E-42
  -28.7999992       9.04958548E-42
  -28.6800003       1.22249278E-41
  -28.5599995      -5.11894329E-42
  -28.4400005      -8.75082865E-41
  -28.3199997      -2.87573070E-40
  -28.2000008      -5.54568071E-40
  -28.0799999      -4.95849462E-40
  -27.9599991       8.43909579E-40
  -27.8400002       4.67040867E-39
  -27.7199993       1.08354283E-38
  -27.6000004       1.47483202E-38
  -27.4799995       4.67742217E-39
  -27.3600006      -3.56230192E-38
  -27.2399998      -1.12772913E-37
  -27.1200008      -1.97176909E-37
  -27.0000000      -1.97540843E-37
  -26.8799992       3.13552162E-38
  -26.7600002       6.09432639E-37
  -26.6399994       1.47091130E-36
  -26.5200005       2.18467713E-36
  -26.3999996       1.90520270E-36
  -26.2800007      -3.61344068E-37
  -26.1599998      -5.09005340E-36
  -26.0400009      -1.13430434E-35
  -25.9200001      -1.61498216E-35
  -25.7999992      -1.48450429E-35
  -25.6800003      -2.83942798E-36
  -25.5599995       2.13851523E-35
  -25.4400005       5.32126318E-35
  -25.3199997       8.06129115E-35
  -25.2000008       8.63542027E-35
  -25.0799999       5.41599552E-35
  -24.9599991      -2.27750538E-35
  -24.8400002      -1.34372975E-34
  -24.7199993      -2.51408005E-34
  -24.6000004      -3.31006375E-34
  -24.4799995      -3.29368374E-34
  -24.3600006      -2.17573168E-34
  -24.2399998       5.86315725E-36
  -24.1200008       3.11310967E-34
  -24.0000000       6.45025204E-34
  -23.8799992       9.43047047E-34
  -23.7600002       1.14374342E-33
  -23.6399994       1.19045288E-33
  -23.5200005       1.02151928E-33
  -23.3999996       5.55827820E-34
  -23.2800007      -3.07077144E-34
  -23.1599998      -1.64977381E-33
  -23.0400009      -3.45133003E-33
  -22.9200001      -5.46946171E-33
  -22.7999992      -7.14249175E-33
  -22.6800003      -7.58937356E-33
  -22.5599995      -5.78108305E-33
  -22.4400005      -9.06440316E-34
  -22.3199997       7.13466517E-33
  -22.2000008       1.72774571E-32
  -22.0799999       2.71061680E-32
  -21.9599991       3.31406740E-32
  -21.8400002       3.16730399E-32
  -21.7199993       2.00229417E-32
  -21.6000004      -2.13799794E-33
  -21.4799995      -3.18795949E-32
  -21.3600006      -6.29852208E-32
  -21.2399998      -8.70472610E-32
  -21.1200008      -9.55675379E-32
  -21.0000000      -8.25471924E-32
  -20.8799992      -4.67657262E-32
  -20.7600002       7.09330393E-33
  -20.6399994       6.90487027E-32
  -20.5200005       1.26207974E-31
  -20.3999996       1.66328395E-31
  -20.2800007       1.81393977E-31
  -20.1599998       1.69835048E-31
  -20.0400009       1.36315427E-31
  -19.9200001       8.88397958E-32
  -19.7999992       3.40948786E-32
  -19.6800003      -2.69846277E-32
  -19.5599995      -1.00962998E-31
  -19.4400005      -1.99066747E-31
  -19.3199997      -3.29558281E-31
  -19.2000008      -4.87480893E-31
  -19.0799999      -6.46039564E-31
  -18.9599991      -7.54584148E-31
  -18.8400002      -7.46665031E-31
  -18.7199993      -5.58040082E-31
  -18.6000004      -1.50029990E-31
  -18.4799995       4.69708264E-31
  -18.3600006       1.23712768E-30
  -18.2399998       2.03688796E-30
  -18.1200008       2.72055491E-30
  -18.0000000       3.12971985E-30
  -17.8799992       3.11386103E-30
  -17.7600002       2.53745163E-30
  -17.6399994       1.28145811E-30
  -17.5200005      -7.43842434E-31
  -17.3999996      -3.55271369E-30
  -17.2800007      -6.99154098E-30
  -17.1599998      -1.06132274E-29
  -17.0400009      -1.35686790E-29
  -16.9200001      -1.45989251E-29
  -16.7999992      -1.22196456E-29
  -16.6800003      -5.15418989E-30
  -16.5599995       7.01539166E-30
  -16.4400005       2.31331405E-29
  -16.3199997       3.99658540E-29
  -16.2000008       5.22533201E-29
  -16.0799999       5.36050521E-29
  -15.9600000       3.83369446E-29
  -15.8400002       3.99975513E-30
  -15.7200003      -4.60618315E-29
  -15.6000004      -1.01130750E-28
  -15.4799995      -1.43645112E-28
  -15.3599997      -1.52671067E-28
  -15.2399998      -1.10391030E-28
  -15.1199999      -1.04969607E-29
  -15.0000000       1.33938678E-28
  -14.8800001       2.86524040E-28
  -14.7600002       3.91032414E-28
  -14.6400003       3.84500743E-28
  -14.5200005       2.19304608E-28
  -14.3999996      -1.10378452E-28
  -14.2799997      -5.46307892E-28
  -14.1599998      -9.59165690E-28
  -14.0400000      -1.16699722E-27
  -13.9200001      -9.83954527E-28
  -13.8000002      -2.94292857E-28
  -13.6800003       8.66051214E-28
  -13.5600004       2.24958536E-27
  -13.4399996       3.39388107E-27
  -13.3199997       3.70373777E-27
  -13.1999998       2.62783665E-27
  -13.0799999      -9.46747378E-29
  -12.9600000      -4.18235409E-27
  -12.8400002      -8.65321634E-27
  -12.7200003      -1.18704692E-26
  -12.6000004      -1.18759088E-26
  -12.4799995      -7.02113862E-27
  -12.3599997       3.20758009E-27
  -12.2399998       1.74050634E-26
  -12.1199999       3.18392551E-26
  -12.0000000       4.07734992E-26
  -11.8800001       3.77586608E-26
  -11.7600002       1.78672404E-26
  -11.6400003      -1.95486619E-26
  -11.5200005      -6.84131115E-26
  -11.3999996      -1.14929219E-25
  -11.2799997      -1.39157122E-25
  -11.1599998      -1.19840100E-25
  -11.0400000      -4.22062062E-26
  -10.9200001       9.28373483E-26
  -10.8000002       2.61039990E-25
  -10.6800003       4.12460904E-25
  -10.5600004       4.78045321E-25
  -10.4399996       3.87058202E-25
  -10.3199997       9.40567855E-26
  -10.1999998      -3.90276706E-25
  -10.0799999      -9.74465578E-25
  -9.96000004      -1.48041325E-24
  -9.84000015      -1.66822408E-24
  -9.72000027      -1.29764424E-24
  -9.60000038      -2.21073881E-25
  -9.47999954       1.51150502E-24
  -9.35999966       3.56979991E-24
  -9.23999977       5.32554830E-24
  -9.11999989       5.93974633E-24
  -9.00000000       4.57498541E-24
  -8.88000011       7.16080006E-25
  -8.76000023      -5.46708060E-24
  -8.64000034      -1.28297332E-23
  -8.52000046      -1.91815584E-23
  -8.39999962      -2.15730186E-23
  -8.27999973      -1.70131312E-23
  -8.15999985      -3.57043731E-24
  -8.03999996       1.83572729E-23
  -7.92000008       4.49889583E-23
  -7.80000019       6.88204021E-23
  -7.67999983       7.94850379E-23
  -7.55999994       6.61073706E-23
  -7.44000006       2.10433869E-23
  -7.32000017      -5.56540422E-23
  -7.19999981      -1.52300023E-22
  -7.07999992      -2.43863588E-22
  -6.96000004      -2.94210660E-22
  -6.84000015      -2.63487999E-22
  -6.71999979      -1.20585770E-22
  -6.59999990       1.41220415E-22
  -6.48000002       4.89415970E-22
  -6.36000013       8.43839335E-22
  -6.23999977       1.08090696E-21
  -6.11999989       1.05528647E-21
  -6.00000000       6.40115666E-22
  -5.88000011      -2.19051275E-22
  -5.76000023      -1.44851785E-21
  -5.63999987      -2.80736800E-21
  -5.51999998      -3.88677104E-21
  -5.40000010      -4.16688114E-21
  -5.28000021      -3.14024983E-21
  -5.15999985      -4.92392740E-22
  -5.03999996       3.69379562E-21
  -4.92000008       8.76732205E-21
  -4.80000019       1.34461981E-20
  -4.67999983       1.59362452E-20
  -4.55999994       1.42805123E-20
  -4.44000006       6.93511861E-21
  -4.32000017      -6.50972967E-21
  -4.19999981      -2.46316437E-20
  -4.07999992      -4.37420572E-20
  -3.96000004      -5.79863755E-20
  -3.83999991      -6.02029934E-20
  -3.72000003      -4.36267075E-20
  -3.59999990      -4.28952844E-21
  -3.48000002       5.63221334E-20
  -3.35999990       1.29085541E-19
  -3.24000001       1.96459997E-19
  -3.11999989       2.34020485E-19
  -3.00000000       2.14918312E-19
  -2.88000011       1.17243856E-19
  -2.75999999      -6.66544787E-20
  -2.64000010      -3.20893836E-19
  -2.51999998      -5.99735361E-19
  -2.40000010      -8.27564631E-19
  -2.27999997      -9.08123027E-19
  -2.16000009      -7.44461155E-19
  -2.03999996      -2.68481398E-19
  -1.91999996       5.24492479E-19
  -1.79999995       1.54429037E-18
  -1.67999995       2.58855337E-18
  -1.55999994       3.35115640E-18
  -1.44000006       3.46567170E-18
  -1.32000005       2.58692217E-18
  -1.20000005       5.03788252E-19
  -1.08000004      -2.73582564E-18
 -0.959999979      -6.71904791E-18
 -0.839999974      -1.06206277E-17
 -0.720000029      -1.32541226E-17
 -0.600000024      -1.32510281E-17
 -0.479999989      -9.37337082E-18
 -0.360000014      -9.29613283E-19
 -0.239999995       1.17788137E-17
 -0.119999997       2.70933398E-17
  -1.11022302E-15   4.18553092E-17
  0.119999997       5.16212021E-17
  0.239999995       5.13322976E-17
  0.360000014       3.64505177E-17
  0.479999989       4.44887512E-18
  0.600000024      -4.35994394E-17
  0.720000029      -1.01724779E-16
  0.839999974      -1.58534617E-16
  0.959999979      -1.97926824E-16
   1.08000004      -2.01377252E-16
   1.20000005      -1.51855895E-16
   1.32000005      -3.90165809E-17
   1.44000006       1.35176003E-16
   1.55999994       3.51676909E-16
   1.67999995       5.72049789E-16
   1.79999995       7.40228604E-16
   1.91999996       7.89571714E-16
   2.03999996       6.55563108E-16
   2.16000009       2.93220969E-16
   2.27999997      -3.03293276E-16
   2.40000010      -1.08291849E-15
   2.51999998      -1.92697857E-15
   2.64000010      -2.65097786E-15
   2.75999999      -3.02342502E-15
   2.88000011      -2.80376609E-15
   3.00000000      -1.79765400E-15
   3.11999989       7.71004792E-17
   3.24000001       2.72565906E-15
   3.35999990       5.82832487E-15
   3.48000002       8.82765964E-15
   3.59999990       1.09668964E-14
   3.72000003       1.13900419E-14
   3.83999991       9.30349141E-15
   3.96000004       4.18469428E-15
   4.07999992      -3.99276127E-15
   4.19999981      -1.45630832E-14
   4.32000017      -2.60564699E-14
   4.44000006      -3.62275382E-14
   4.55999994      -4.22683637E-14
   4.67999983      -4.12249885E-14
   4.80000019      -3.05978184E-14
   4.92000008      -9.05895723E-15
   5.03999996       2.28291168E-14
   5.15999985       6.20490936E-14
   5.28000021       1.02893788E-13
   5.40000010       1.37224094E-13
   5.51999998       1.55333605E-13
   5.63999987       1.47442659E-13
   5.76000023       1.05719930E-13
   5.88000011       2.65867396E-14
   6.00000000      -8.70792764E-14
   6.11999989      -2.24326498E-13
   6.23999977      -3.65618180E-13
   6.36000013      -4.83888212E-13
   6.48000002      -5.47453088E-13
   6.59999990      -5.24787462E-13
   6.71999979      -3.90803302E-13
   6.84000015      -1.33865263E-13
   6.96000004       2.37600765E-13
   7.07999992       6.90313583E-13
   7.19999981       1.16463349E-12
   7.32000017       1.57762909E-12
   7.44000006       1.83149654E-12
   7.55999994       1.82732822E-12
   7.67999983       1.48321795E-12
   7.80000019       7.54594087E-13
   7.92000008      -3.46336702E-13
   8.03999996      -1.73586037E-12
   8.15999985      -3.25276351E-12
   8.27999973      -4.66461418E-12
   8.39999962      -5.68859760E-12
   8.52000046      -6.02720131E-12
   8.64000034      -5.41646502E-12
   8.76000023      -3.68169687E-12
   8.88000011      -7.92909141E-13
   9.00000000       3.08973420E-12
   9.11999989       7.59095217E-12
   9.23999977       1.21254708E-11
   9.35999966       1.59401849E-11
   9.47999954       1.81957158E-11
   9.60000038       1.80836821E-11
   9.72000027       1.49691596E-11
   9.84000015       8.54095007E-12
   9.96000004      -1.05312341E-12
   10.0799999      -1.31117426E-11
   10.1999998      -2.63518114E-11
   10.3199997      -3.89670379E-11
   10.4399996      -4.87848859E-11
   10.5600004      -5.35204277E-11
   10.6800003      -5.11099982E-11
   10.8000002      -4.00908196E-11
   10.9200001      -1.99780800E-11
   11.0400000       8.41981779E-12
   11.1599998       4.28109839E-11
   11.2799997       7.94129554E-11
   11.3999996       1.13172097E-10
   11.5200005       1.38228234E-10
   11.6400003       1.48610665E-10
   11.7600002       1.39113943E-10
   11.8800001       1.06263907E-10
   12.0000000       4.92512246E-11
   12.1199999      -2.93122367E-11
   12.2399998      -1.22965416E-10
   12.3599997      -2.21435148E-10
   12.4799995      -3.11238590E-10
   12.6000004      -3.76892406E-10
   12.7200003      -4.02693712E-10
   12.8400002      -3.74949766E-10
   12.9600000      -2.84442608E-10
   13.0799999      -1.28836442E-10
   13.1999998       8.53225893E-11
   13.3199997       3.41385337E-10
   13.4399996       6.12505491E-10
   13.5600004       8.62945826E-10
   13.6800003       1.05092968E-09
   13.8000002       1.13301080E-09
   13.9200001       1.06972320E-09
   14.0400000       8.32053426E-10
   14.1599998       4.08063222E-10
   14.2799997      -1.91181737E-10
   14.3999996      -9.27322719E-10
   14.5200005      -1.73300863E-09
   14.6400003      -2.51362731E-09
   14.7600002      -3.15305382E-09
   14.8800001      -3.52364204E-09
   15.0000000      -3.50019258E-09
   15.1199999      -2.97707592E-09
   15.2399998      -1.88711313E-09
   15.3599997      -2.20261295E-10
   15.4799995       1.96025329E-09
   15.6000004       4.50696813E-09
   15.7200003       7.18495086E-09
   15.8400002       9.67855307E-09
   15.9600000       1.16097194E-08
   16.0799999       1.25684130E-08
   16.2000008       1.21544490E-08
   16.3199997       1.00285211E-08
   16.4400005       5.96867089E-09
   16.5599995      -7.30101465E-11
   16.6800003      -7.91984878E-09
   16.7999992      -1.71333330E-08
   16.9200001      -2.69963500E-08
   17.0400009      -3.65234420E-08
   17.1599998      -4.45030786E-08
   17.2800007      -4.95746377E-08
   17.3999996      -5.03396542E-08
   17.5200005      -4.55031888E-08
   17.6399994      -3.40373525E-08
   17.7600002      -1.53549955E-08
   17.8799992       1.05218065E-08
   18.0000000       4.28163034E-08
   18.1200008       7.98938942E-08
   18.2399998       1.19220005E-07
   18.3600006       1.57395689E-07
   18.4799995       1.90283643E-07
   18.6000004       2.13231274E-07
   18.7199993       2.21390238E-07
   18.8400002       2.10123318E-07
   18.9599991       1.75480608E-07
   19.0799999       1.14718162E-07
   19.2000008       2.68248073E-08
   19.3199997      -8.69832775E-08
   19.4400005      -2.22843681E-07
   19.5599995      -3.73948552E-07
   19.6800003      -5.30405373E-07
   19.7999992      -6.79291531E-07
   19.9200001      -8.04926856E-07
   20.0400009      -8.89374121E-07
   20.1599998      -9.13163035E-07
   20.2800007      -8.56217525E-07
   20.3999996      -6.98948668E-07
   20.5200005      -4.23461188E-07
   20.6399994      -1.48092907E-08
   20.7600002       5.37772394E-07
   20.8799992       1.23974110E-06
   21.0000000       2.09029804E-06
   21.1200008       3.08169456E-06
   21.2399998       4.19885009E-06
   21.3600006       5.41932923E-06
   21.4799995       6.71370481E-06
   21.6000004       8.04630417E-06
   21.7199993       9.37632831E-06
   21.8400002       1.06592997E-05
   21.9599991       1.18487560E-05
   22.0799999       1.28981465E-05
   22.2000008       1.37628058E-05
   22.3199997       1.44019104E-05
   22.4400005       1.47803348E-05
   22.5599995       1.48702866E-05
   22.6800003       1.46526463E-05
   22.7999992       1.41179462E-05
   22.9200001       1.32669347E-05
   23.0400009       1.21107032E-05
   23.1599998       1.06703701E-05
   23.2800007       8.97634891E-06
   23.3999996       7.06724040E-06
   23.5200005       4.98841609E-06
   23.6399994       2.79036203E-06
   23.7600002       5.26866472E-07
   23.8799992      -1.74685340E-06
   24.0000000      -3.97600752E-06
   24.1200008      -6.10799725E-06
   24.2399998      -8.09400899E-06
   24.3600006      -9.89040291E-06
   24.4799995      -1.14598424E-05
   24.6000004      -1.27721560E-05
   24.7199993      -1.38049199E-05
   24.8400002      -1.45437662E-05
   24.9599991      -1.49824500E-05
   25.0799999      -1.51226695E-05
   25.2000008      -1.49737070E-05
   25.3199997      -1.45518916E-05
   25.4400005      -1.38799260E-05
   25.5599995      -1.29860928E-05
   25.6800003      -1.19033784E-05
   25.7999992      -1.06685184E-05
   25.9200001      -9.32097282E-06
   26.0400009      -7.90187096E-06
   26.1599998      -6.45289902E-06
   26.2800007      -5.01517889E-06
   26.3999996      -3.62813353E-06
   26.5200005      -2.32837010E-06
   26.6399994      -1.14860632E-06
   26.7600002      -1.16676432E-07
   26.8799992       7.45346711E-07
   27.0000000       1.42187105E-06
   27.1200008       1.90430660E-06
   27.2399998       2.19134813E-06
   27.3600006       2.28899194E-06
   27.4799995       2.21026221E-06
   27.6000004       1.97464328E-06
   27.7199993       1.60722220E-06
   27.8400002       1.13756948E-06
   27.9599991       5.98398515E-07
   28.0799999       2.40606308E-08
   28.2000008      -5.51054143E-07
   28.3199997      -1.09413088E-06
   28.4400005      -1.57547402E-06
   28.5599995      -1.96989959E-06
   28.6800003      -2.25789518E-06
   28.7999992      -2.42648616E-06
   28.9200001      -2.46975014E-06
   29.0400009      -2.38895564E-06
   29.1599998      -2.19231060E-06
   29.2800007      -1.89433752E-06
   29.3999996      -1.51490815E-06
   29.5200005      -1.07799792E-06
   29.6399994      -6.10230018E-07
   29.7600002      -1.39297086E-07
   29.8799992       3.07648037E-07
   30.0000000       7.05538298E-07
   30.1200008       1.03278558E-06
   30.2399998       1.27244152E-06
   30.3600006       1.41306407E-06
   30.4799995       1.44924093E-06
   30.6000004       1.38174960E-06
   30.7199993       1.21735172E-06
   30.8400002       9.68241466E-07
   30.9599991       6.51191897E-07
   31.0799999       2.86457237E-07
   31.2000008      -1.03496433E-07
   31.3199997      -4.95350662E-07
   31.4400005      -8.66300752E-07
   31.5599995      -1.19534729E-06
   31.6800003      -1.46443756E-06
   31.7999992      -1.65939559E-06
   31.9200001      -1.77059235E-06
   32.0400009      -1.79332824E-06
   32.1599998      -1.72791556E-06
   32.2799988      -1.57947011E-06
   32.4000015      -1.35743858E-06
   32.5200005      -1.07490018E-06
   32.6399994      -7.47697186E-07
   32.7599983      -3.93453718E-07
   32.8800011      -3.05464631E-08
   33.0000000       3.22909216E-07
   33.1199989       6.50000800E-07
   33.2400017       9.35836965E-07
   33.3600006       1.16820524E-06
   33.4799995       1.33804269E-06
   33.5999985       1.43970806E-06
   33.7200012       1.47105538E-06
   33.8400002       1.43332568E-06
   33.9599991       1.33087542E-06
   34.0800018       1.17077809E-06
   34.2000008       9.62330660E-07
   34.3199997       7.16505838E-07
   34.4399986       4.45382824E-07
   34.5600014       1.61591984E-07
   34.6800003      -1.22202266E-07
   34.7999992      -3.93760757E-07
   34.9199982      -6.41659710E-07
   35.0400009      -8.55609187E-07
   35.1599998      -1.02670208E-06
   35.2799988      -1.14760326E-06
   35.4000015      -1.21268829E-06
   35.5200005      -1.21814571E-06
   35.6399994      -1.16205229E-06
   35.7599983      -1.04442870E-06
   35.8800011      -8.67278686E-07
   36.0000000      -6.34608909E-07
   36.1199989      -3.52421267E-07
   36.2400017      -2.86657098E-08
   36.3600006       3.26861880E-07
   36.4799995       7.02693399E-07
   36.5999985       1.08594725E-06
   36.7200012       1.46268235E-06
   36.8400002       1.81835139E-06
   36.9599991       2.13834437E-06
   37.0800018       2.40861164E-06
   37.2000008       2.61633545E-06
   37.3199997       2.75061757E-06
   37.4399986       2.80314271E-06
   37.5600014       2.76876426E-06
   37.6800003       2.64597315E-06
   37.7999992       2.43719956E-06
   37.9199982       2.14891315E-06
   38.0400009       1.79149799E-06
   38.1599998       1.37888708E-06
   38.2799988       9.27967960E-07
   38.4000015       4.57778157E-07
   38.5200005      -1.14653096E-08
   38.6399994      -4.59448557E-07
   38.7599983      -8.66887206E-07
   38.8800011      -1.21662367E-06
   39.0000000      -1.49461903E-06
   39.1199989      -1.69076884E-06
   39.2400017      -1.79948290E-06
   39.3600006      -1.81998098E-06
   39.4799995      -1.75628190E-06
   39.5999985      -1.61687615E-06
   39.7200012      -1.41410658E-06
   39.8400002      -1.16329420E-06
   39.9599991      -8.81671554E-07
   40.0800018      -5.87199395E-07
   40.2000008      -2.97354404E-07
   40.3199997      -2.79753269E-08
   40.4399986       2.07746126E-07
   40.5600014       4.00054830E-07
   40.6800003       5.43145404E-07
   40.7999992       6.35362653E-07
   40.9199982       6.79079164E-07
   41.0400009       6.80263724E-07
   41.1599998       6.47782144E-07
   41.2799988       5.92490267E-07
   41.4000015       5.26198050E-07
   41.5200005       4.60592446E-07
   41.6399994       4.06208500E-07
   41.7599983       3.71534128E-07
   41.8800011       3.62319810E-07
   42.0000000       3.81146123E-07
   42.1199989       4.27278422E-07
   42.2400017       4.96811765E-07
   42.3600006       5.83085182E-07
   42.4799995       6.77318894E-07
   42.5999985       7.69412679E-07
   42.7200012       8.48829018E-07
   42.8400002       9.05482921E-07
   42.9599991       9.30559736E-07
   43.0800018       9.17197099E-07
   43.2000008       8.60976513E-07
   43.3199997       7.60198191E-07
   43.4399986       6.15926524E-07
   43.5600014       4.31821917E-07
   43.6800003       2.13789349E-07
   43.7999992      -3.05088861E-08
   43.9199982      -2.92220790E-07
   44.0400009      -5.61894524E-07
   44.1599998      -8.30036072E-07
   44.2799988      -1.08758888E-06
   44.4000015      -1.32630419E-06
   44.5200005      -1.53898543E-06
   44.6399994      -1.71960733E-06
   44.7599983      -1.86332477E-06
   44.8800011      -1.96639871E-06
   45.0000000      -2.02607202E-06
   45.1199989      -2.04043363E-06
   45.2400017      -2.00830505E-06
   45.3600006      -1.92917514E-06
   45.4799995      -1.80320137E-06
   45.5999985      -1.63127834E-06
   45.7200012      -1.41516796E-06
   45.8400002      -1.15766727E-06
   45.9599991      -8.62785384E-07
   46.0800018      -5.35894117E-07
   46.2000008      -1.83816240E-07
   46.3199997       1.85179687E-07
   46.4399986       5.61501167E-07
   46.5600014       9.34481363E-07
   46.6800003       1.29275372E-06
   46.7999992       1.62473384E-06
   46.9199982       1.91917934E-06
   47.0400009       2.16578474E-06
   47.1599998       2.35576545E-06
   47.2799988       2.48237893E-06
   47.4000015       2.54133988E-06
   47.5200005       2.53108624E-06
   47.6399994       2.45287515E-06
   47.7599983       2.31069407E-06
   47.8800011       2.11099450E-06
   48.0000000       1.86227066E-06
   48.1199989       1.57451836E-06
   48.2400017       1.25862186E-06
   48.3600006       9.25719746E-07
   48.4799995       5.86605324E-07
   48.5999985       2.51204455E-07
   48.7200012      -7.18263848E-08
   48.8400002      -3.75360088E-07
   48.9599991      -6.53906739E-07
   49.0800018      -9.03576904E-07
   49.2000008      -1.12192004E-06
   49.3199997      -1.30767262E-06
   49.4399986      -1.46045386E-06
   49.5600014      -1.58045441E-06
   49.6800003      -1.66815482E-06
   49.7999992      -1.72411012E-06
   49.9199982      -1.74882064E-06
   50.0400009      -1.74269894E-06
   50.1599998      -1.70613066E-06
   50.2799988      -1.63960999E-06
   50.4000015      -1.54392660E-06
   50.5200005      -1.42037015E-06
   50.6399994      -1.27091846E-06
   50.7599983      -1.09837777E-06
   50.8800011      -9.06448804E-07
   51.0000000      -6.99702753E-07
   51.1199989      -4.83461463E-07
   51.2400017      -2.63588248E-07
   51.3600006      -4.62060896E-08
   51.4799995       1.62631409E-07
   51.5999985       3.57284961E-07
   51.7200012       5.32857996E-07
   51.8400002       6.85477289E-07
   51.9599991       8.12498911E-07
   52.0800018       9.12622454E-07
   52.2000008       9.85903512E-07
   52.3199997       1.03366403E-06
   52.4399986       1.05831191E-06
   52.5600014       1.06308323E-06
   52.6800003       1.05173194E-06
   52.7999992       1.02818922E-06
   52.9199982       9.96220024E-07
   53.0400009       9.59099680E-07
   53.1599998       9.19334923E-07
   53.2799988       8.78444325E-07
   53.4000015       8.36817549E-07
   53.5200005       7.93661229E-07
   53.6399994       7.47039451E-07
   53.7599983       6.94011874E-07
   53.8800011       6.30867817E-07
   54.0000000       5.53449638E-07
   54.1199989       4.57553597E-07
   54.2400017       3.39388890E-07
   54.3600006       1.96071056E-07
   54.4799995       2.61166804E-08
   54.5999985      -1.70098616E-07
   54.7200012      -3.89960178E-07
   54.8400002      -6.28356531E-07
   54.9599991      -8.77584569E-07
   55.0800018      -1.12745170E-06
   55.2000008      -1.36559925E-06
   55.3199997      -1.57805357E-06
   55.4399986      -1.74999559E-06
   55.5600014      -1.86671389E-06
   55.6800003      -1.91469417E-06
   55.7999992      -1.88276670E-06
   55.9199982      -1.76323238E-06
   56.0400009      -1.55286546E-06
   56.1599998      -1.25370127E-06
   56.2799988      -8.73516626E-07
   56.4000015      -4.25929159E-07
   56.5200005       6.99324616E-08
   56.6399994       5.90206298E-07
   56.7599983       1.10750500E-06
   56.8800011       1.59249669E-06
   57.0000000       2.01576790E-06
   57.1199989       2.34984282E-06
   57.2400017       2.57121178E-06
   57.3600006       2.66220809E-06
   57.4799995       2.61257674E-06
   57.5999985       2.42058513E-06
   57.7200012       2.09356472E-06
   57.8400002       1.64780772E-06
   57.9599991       1.10779001E-06
   58.0800018       5.04755121E-07
   58.2000008      -1.25258907E-07
   58.3199997      -7.43815235E-07
   58.4399986      -1.31271884E-06
   58.5600014      -1.79670303E-06
   58.6800003      -2.16594958E-06
   58.7999992      -2.39824180E-06
   58.9199982      -2.48057631E-06
   59.0400009      -2.41010071E-06
   59.1599998      -2.19429853E-06
   59.2799988      -1.85040983E-06
   59.4000015      -1.40412999E-06
   59.5200005      -8.87694512E-07
   59.6399994      -3.37505242E-07
   59.7599983       2.08515374E-07
   59.8800011       7.13632289E-07
   60.0000000       1.14486056E-06
   60.1199989       1.47519370E-06
   60.2400017       1.68533882E-06
   60.3600006       1.76484548E-06
   60.4799995       1.71256738E-06
   60.5999985       1.53645033E-06
   60.7200012       1.25269025E-06
   60.8400002       8.84354904E-07
   60.9599991       4.59593508E-07
   61.0800018       9.58487067E-09
   61.2000008      -4.33617970E-07
   61.3199997      -8.39191443E-07
   61.4399986      -1.17945308E-06
   61.5600014      -1.43146849E-06
   61.6800003      -1.57826878E-06
   61.7999992      -1.60963111E-06
   61.9199982      -1.52240636E-06
   62.0400009      -1.32041180E-06
   62.1599998      -1.01393266E-06
   62.2799988      -6.18894376E-07
   62.4000015      -1.55782473E-07
   62.5200005       3.51606815E-07
   62.6399994       8.77505840E-07
   62.7599983       1.39552446E-06
   62.8800011       1.87994351E-06
   63.0000000       2.30689261E-06
   63.1199989       2.65536937E-06
   63.2400017       2.90806702E-06
   63.3600006       3.05198614E-06
   63.4799995       3.07882874E-06
   63.5999985       2.98516761E-06
   63.7200012       2.77241315E-06
   63.8400002       2.44658918E-06
   63.9599991       2.01795160E-06
   64.0800018       1.50048277E-06
   64.1999969       9.11296411E-07
   64.3199997       2.69987879E-07
   64.4400024      -4.02035397E-07
   64.5599976      -1.08222048E-06
   64.6800003      -1.74751256E-06
   64.8000031      -2.37496920E-06
   64.9199982      -2.94234792E-06
   65.0400009      -3.42867156E-06
   65.1600037      -3.81479140E-06
   65.2799988      -4.08395317E-06
   65.4000015      -4.22238509E-06
   65.5199966      -4.21989898E-06
   65.6399994      -4.07049674E-06
   65.7600021      -3.77295419E-06
   65.8799973      -3.33134017E-06
   66.0000000      -2.75541311E-06
   66.1200027      -2.06083655E-06
   66.2399979      -1.26914676E-06
   66.3600006      -4.07414831E-07
   66.4800034       4.92441188E-07
   66.5999985       1.39471240E-06
   66.7200012       2.26131442E-06
   66.8399963       3.05352160E-06
   66.9599991       3.73393914E-06
   67.0800018       4.26860515E-06
   67.1999969       4.62908565E-06
   67.3199997       4.79440905E-06
   67.4400024       4.75268462E-06
   67.5599976       4.50225252E-06
   67.6800003       4.05224682E-06
   67.8000031       3.42248131E-06
   67.9199982       2.64262303E-06
   68.0400009       1.75067441E-06
   68.1600037       7.90838158E-07
   68.2799988      -1.89097548E-07
   68.4000015      -1.14067313E-06
   68.5199966      -2.01775970E-06
   68.6399994      -2.77941740E-06
   68.7600021      -3.39239182E-06
   68.8799973      -3.83304632E-06
   69.0000000      -4.08858750E-06
   69.1200027      -4.15748354E-06
   69.2399979      -4.04906405E-06
   69.3600006      -3.78233949E-06
   69.4800034      -3.38416999E-06
   69.5999985      -2.88694036E-06
   69.7200012      -2.32596199E-06
   69.8399963      -1.73681815E-06
   69.9599991      -1.15288094E-06
   70.0800018      -6.03187971E-07
   70.1999969      -1.10836019E-07
   70.3199997       3.08015046E-07
   70.4400024       6.44493014E-07
   70.5599976       8.96745121E-07
   70.6800003       1.06913092E-06
   70.8000031       1.17099978E-06
   70.9199982       1.21520134E-06
   71.0400009       1.21648736E-06
   71.1600037       1.18995797E-06
   71.2799988       1.14968009E-06
   71.4000015       1.10757981E-06
   71.5199966       1.07266590E-06
   71.6399994       1.05061099E-06
   71.7600021       1.04367518E-06
   71.8799973       1.05093113E-06
   72.0000000       1.06872812E-06
   72.1200027       1.09132645E-06
   72.2399979       1.11162524E-06
   72.3600006       1.12191890E-06
   72.4800034       1.11462555E-06
   72.5999985       1.08294296E-06
   72.7200012       1.02140370E-06