  -30.0000000       0.00000000    
  -29.8799992       0.00000000    
  -29.7600002       0.00000000    
  -29.6399994       0.00000000    
  -29.5200005       0.00000000    
  -29.3999996       0.00000000    
  -29.2800007       0.00000000    
  -29.1599998       4.20389539E-45
  -29.0400009      -2.10194770E-44
  -28.9200001      -1.40129846E-45
  -28.7999992      -2.80259693E-45
  -28.6800003      -3.11088259E-43
  -28.5599995      -2.91329951E-42
  -28.4400005      -1.19096356E-41
  -28.3199997      -3.11774895E-41
  -28.2000008      -5.66544969E-41
  -28.0799999      -4.76665686E-41
  -27.9599991       1.01463818E-40
  -27.8400002       5.60386262E-40
  -27.7199993       1.46278884E-39
  -27.6000004       2.63489373E-39
  -27.4799995       3.16420620E-39
  -27.3600006       1.02427070E-39
  -27.2399998      -6.70287999E-39
  -27.1200008      -2.22640710E-38
  -27.0000000      -4.37944474E-38
  -26.8799992      -6.06427101E-38
  -26.7600002      -5.02966993E-38
  -26.6399994       1.78895703E-38
  -26.5200005       1.66658366E-37
  -26.3999996       3.81599311E-37
  -26.2800007       5.78590934E-37
  -26.1599998       5.91579738E-37
  -26.0400009       2.11773506E-37
  -25.9200001      -7.01904661E-37
  -25.7999992      -2.05850682E-36
  -25.6800003      -3.38967758E-36
  -25.5599995      -3.84136006E-36
  -25.4400005      -2.41531803E-36
  -25.3199997       1.51433236E-36
  -25.2000008       7.54755693E-36
  -25.0799999       1.37830171E-35
  -24.9599991       1.69222198E-35
  -24.8400002       1.32460004E-35
  -24.7199993       4.15501317E-37
  -24.6000004      -2.04422414E-35
  -24.4799995      -4.33448073E-35
  -24.3600006      -5.78678994E-35
  -24.2399998      -5.20725975E-35
  -24.1200008      -1.77126034E-35
  -24.0000000       4.37680456E-35
  -23.8799992       1.17019762E-34
  -23.7600002       1.73241591E-34
  -23.6399994       1.77261805E-34
  -23.5200005       1.00936830E-34
  -23.3999996      -6.05388315E-35
  -23.2800007      -2.75657673E-34
  -23.1599998      -4.74343654E-34
  -23.0400009      -5.61992967E-34
  -22.9200001      -4.50272744E-34
  -22.7999992      -9.77604124E-35
  -22.6800003       4.53581944E-34
  -22.5599995       1.06351107E-33
  -22.4400005       1.51439846E-33
  -22.3199997       1.57146366E-33
  -22.2000008       1.07008410E-33
  -22.0799999       2.45398921E-36
  -21.9599991      -1.43220312E-33
  -21.8400002      -2.84456941E-33
  -21.7199993      -3.75027293E-33
  -21.6000004      -3.72430957E-33
  -21.4799995      -2.56693087E-33
  -21.3600006      -4.17291678E-34
  -21.2399998       2.24109945E-33
  -21.1200008       4.70547597E-33
  -21.0000000       6.28112623E-33
  -20.8799992       6.53316544E-33
  -20.7600002       5.45912066E-33
  -20.6399994       3.49325146E-33
  -20.5200005       1.31146507E-33
  -20.3999996      -5.08905851E-34
  -20.2800007      -1.83896908E-33
  -20.1599998      -3.18273177E-33
  -20.0400009      -5.55065677E-33
  -19.9200001      -9.97999332E-33
  -19.7999992      -1.68103112E-32
  -19.6800003      -2.49698833E-32
  -19.5599995      -3.16112354E-32
  -19.4400005      -3.24026487E-32
  -19.3199997      -2.26201406E-32
  -19.2000008       1.08195613E-33
  -19.0799999       3.86442416E-32
  -18.9599991       8.49789493E-32
  -18.8400002       1.29485675E-31
  -18.7199993       1.57287692E-31
  -18.6000004       1.52375924E-31
  -18.4799995       1.02276178E-31
  -18.3600006       3.24172689E-33
  -18.2399998      -1.35497330E-31
  -18.1200008      -2.90035599E-31
  -18.0000000      -4.23924593E-31
  -17.8799992      -4.94597383E-31
  -17.7600002      -4.63371551E-31
  -17.6399994      -3.07068347E-31
  -17.5200005      -2.83498028E-32
  -17.3999996       3.38377334E-31
  -17.2800007       7.28005704E-31
  -17.1599998       1.05376806E-30
  -17.0400009       1.22338211E-30
  -16.9200001       1.15952869E-30
  -16.7999992       8.20603673E-31
  -16.6800003       2.17272969E-31
  -16.5599995      -5.79173919E-31
  -16.4400005      -1.43957630E-30
  -16.3199997      -2.19216681E-30
  -16.2000008      -2.64993779E-30
  -16.0799999      -2.64744179E-30
  -15.9600000      -2.08166677E-30
  -15.8400002      -9.48888004E-31
  -15.7200003       6.32379003E-31
  -15.6000004       2.42169102E-30
  -15.4799995       4.08584495E-30
  -15.3599997       5.25559951E-30
  -15.2399998       5.60032066E-30
  -15.1199999       4.90398789E-30
  -15.0000000       3.12338065E-30
  -14.8800001       4.12649110E-31
  -14.7600002      -2.89263242E-30
  -14.6400003      -6.32706054E-30
  -14.5200005      -9.36695664E-30
  -14.3999996      -1.15001746E-29
  -14.2799997      -1.22738372E-29
  -14.1599998      -1.13096512E-29
  -14.0400000      -8.29380515E-30
  -13.9200001      -2.97001719E-30
  -13.8000002       4.81721986E-30
  -13.6800003       1.49774230E-29
  -13.5600004       2.68973631E-29
  -13.4399996       3.90618706E-29
  -13.3199997       4.86940602E-29
  -13.1999998       5.16398031E-29
  -13.0799999       4.27868177E-29
  -12.9600000       1.72735468E-29
  -12.8400002      -2.74472943E-29
  -12.7200003      -8.89831333E-29
  -12.6000004      -1.57567732E-28
  -12.4799995      -2.14986336E-28
  -12.3599997      -2.36175730E-28
  -12.2399998      -1.94477493E-28
  -12.1199999      -7.05775084E-29
  -12.0000000       1.36322401E-28
  -11.8800001       3.98248753E-28
  -11.7600002       6.53585897E-28
  -11.6400003       8.12291769E-28
  -11.5200005       7.74410894E-28
  -11.3999996       4.61617626E-28
  -11.2799997      -1.43574502E-28
  -11.1599998      -9.61867481E-28
  -11.0400000      -1.79958721E-27
  -10.9200001      -2.36505719E-27
  -10.8000002      -2.32948468E-27
  -10.6800003      -1.43139774E-27
  -10.5600004       3.93126020E-28
  -10.4399996       2.89071896E-27
  -10.3199997       5.43186662E-27
  -10.1999998       7.06559602E-27
  -10.0799999       6.72379661E-27
  -9.96000004       3.57250105E-27
  -9.84000015      -2.55023535E-27
  -9.72000027      -1.07343192E-26
  -9.60000038      -1.88089785E-26
  -9.47999954      -2.35459634E-26
  -9.35999966      -2.13753187E-26
  -9.23999977      -9.59705528E-27
  -9.11999989       1.21287449E-26
  -9.00000000       4.04486919E-26
  -8.88000011       6.77334462E-26
  -8.76000023       8.28473679E-26
  -8.64000034       7.36528181E-26
  -8.52000046       3.11584743E-26
  -8.39999962      -4.54494414E-26
  -8.27999973      -1.44362014E-25
  -8.15999985      -2.39258530E-25
  -8.03999996      -2.91950592E-25
  -7.92000008      -2.60812995E-25
  -7.80000019      -1.14716892E-25
  -7.67999983       1.49999645E-25
  -7.55999994       4.94324402E-25
  -7.44000006       8.29643140E-25
  -7.32000017       1.02577260E-24
  -7.19999981       9.38429426E-25
  -7.07999992       4.55675937E-25
  -6.96000004      -4.44328617E-25
  -6.84000015      -1.63990959E-24
  -6.71999979      -2.83859981E-24
  -6.59999990      -3.59904732E-24
  -6.48000002      -3.41853268E-24
  -6.36000013      -1.88664645E-24
  -6.23999977       1.11823065E-24
  -6.11999989       5.24009731E-24
  -6.00000000       9.53662705E-24
  -5.88000011       1.25295322E-23
  -5.76000023       1.24740200E-23
  -5.63999987       7.85766756E-24
  -5.51999998      -1.93836298E-24
  -5.40000010      -1.59736571E-23
  -5.28000021      -3.13144111E-23
  -5.15999985      -4.30987434E-23
  -5.03999996      -4.53215768E-23
  -4.92000008      -3.24107353E-23
  -4.80000019      -1.42122167E-24
  -4.67999983       4.56266892E-23
  -4.55999994       1.00019030E-22
  -4.44000006       1.46132153E-22
  -4.32000017       1.63537959E-22
  -4.19999981       1.31818695E-22
  -4.07999992       3.77239564E-23
  -3.96000004      -1.16687119E-22
  -3.83999991      -3.07267507E-22
  -3.72000003      -4.85372054E-22
  -3.59999990      -5.82753992E-22
  -3.48000002      -5.25601184E-22
  -3.35999990      -2.57288259E-22
  -3.24000001       2.33761095E-22
  -3.11999989       8.88167512E-22
  -3.00000000       1.56141074E-21
  -2.88000011       2.03179651E-21
  -2.75999999       2.03846949E-21
  -2.64000010       1.35098062E-21
  -2.51999998      -1.37976657E-22
  -2.40000010      -2.31677356E-21
  -2.27999997      -4.78662359E-21
  -2.16000009      -6.85681271E-21
  -2.03999996      -7.63508143E-21
  -1.91999996      -6.22823946E-21
  -1.79999995      -2.03882007E-21
  -1.67999995       4.89472818E-21
  -1.55999994       1.36056234E-20
  -1.44000006       2.20724762E-20
  -1.32000005       2.73785958E-20
  -1.20000005       2.62391901E-20
  -1.08000004       1.58978863E-20
 -0.959999979      -4.72448690E-21
 -0.839999974      -3.38813437E-20
 -0.720000029      -6.62212881E-20
 -0.600000024      -9.28004300E-20
 -0.479999989      -1.02250503E-19
 -0.360000014      -8.32684013E-20
 -0.239999995      -2.82509386E-20
 -0.119999997       6.25430292E-20
  -1.11022302E-15   1.77369353E-19
  0.119999997       2.91299252E-19
  0.239999995       3.67861177E-19
  0.360000014       3.65048634E-19
  0.479999989       2.45834304E-19
  0.600000024      -7.99462953E-21
  0.720000029      -3.81419701E-19
  0.839999974      -8.15348311E-19
  0.959999979      -1.20428315E-18
   1.08000004      -1.40707817E-18
   1.20000005      -1.27345510E-18
   1.32000005      -6.85405423E-19
   1.44000006       3.92247289E-19
   1.55999994       1.86313458E-18
   1.67999995       3.46782940E-18
   1.79999995       4.78659187E-18
   1.91999996       5.29087591E-18
   2.03999996       4.45018248E-18
   2.16000009       1.88755771E-18
   2.27999997      -2.44004653E-18
   2.40000010      -8.07794642E-18
   2.51999998      -1.39811225E-17
   2.64000010      -1.85508223E-17
   2.75999999      -1.98465808E-17
   2.88000011      -1.59899323E-17
   3.00000000      -5.72870054E-18
   3.11999989       1.09277664E-17
   3.24000001       3.21504524E-17
   3.35999990       5.39992603E-17
   3.48000002       7.05944191E-17
   3.59999990       7.49019125E-17
   3.72000003       6.01788057E-17
   3.83999991       2.19627570E-17
   3.96000004      -3.97065620E-17
   4.07999992      -1.18340217E-16
   4.19999981      -1.99969312E-16
   4.32000017      -2.63693321E-16
   4.44000006      -2.84322464E-16
   4.55999994      -2.37283575E-16
   4.67999983      -1.05430972E-16
   4.80000019       1.13244083E-16
   4.92000008       3.98656321E-16
   5.03999996       7.04547130E-16
   5.15999985       9.59519770E-16
   5.28000021       1.07501038E-15
   5.40000010       9.60965337E-16
   5.51999998       5.48338796E-16
   5.63999987      -1.84558791E-16
   5.76000023      -1.18697649E-15
   5.88000011      -2.31871839E-15
   6.00000000      -3.34868123E-15
   6.11999989      -3.97545681E-15
   6.23999977      -3.87359602E-15
   6.36000013      -2.76423040E-15
   6.48000002      -5.02290644E-16
   6.59999990       2.83441894E-15
   6.71999979       6.87510978E-15
   6.84000015       1.09289841E-14
   6.96000004       1.40242737E-14
   7.07999992       1.50292444E-14
   7.19999981       1.28577314E-14
   7.32000017       6.74286592E-15
   7.44000006      -3.45918261E-15
   7.55999994      -1.69947132E-14
   7.67999983      -3.20414200E-14
   7.80000019      -4.57183086E-14
   7.92000008      -5.43411040E-14
   8.03999996      -5.39553957E-14
   8.15999985      -4.11288875E-14
   8.27999973      -1.39194576E-14
   8.39999962       2.71328692E-14
   8.52000046       7.82010090E-14
   8.64000034       1.31796985E-13
   8.76000023       1.77064526E-13
   8.88000011       2.00910699E-13
   9.00000000       1.90028006E-13
   9.11999989       1.33685665E-13
   9.23999977       2.69628849E-14
   9.35999966      -1.26107255E-13
   9.47999954      -3.10176581E-13
   9.60000038      -4.97766487E-13
   9.72000027      -6.50697270E-13
   9.84000015      -7.24231764E-13
   9.96000004      -6.74002954E-13
   10.0799999      -4.65251427E-13
   10.1999998      -8.32777044E-14
   10.3199997       4.56589465E-13
   10.4399996       1.10166303E-12
   10.5600004       1.75953414E-12
   10.6800003       2.30277928E-12
   10.8000002       2.58213199E-12
   10.9200001       2.44831824E-12
   11.0400000       1.78114619E-12
   11.1599998       5.22618570E-13
   11.2799997      -1.29095443E-12
   11.3999996      -3.50422577E-12
   11.5200005      -5.83245908E-12
   11.6400003      -7.87203289E-12
   11.7600002      -9.13643119E-12
   11.8800001      -9.11909437E-12
   12.0000000      -7.38008613E-12
   12.1199999      -3.64828306E-12
   12.2399998       2.07440532E-12
   12.3599997       9.42471275E-12
   12.4799995       1.76260031E-11
   12.6000004       2.54927173E-11
   12.7200003       3.15075639E-11
   12.8400002       3.39800653E-11
   12.9600000       3.12837187E-11
   13.0799999       2.21550642E-11
   13.1999998       6.02278687E-12
   13.3199997      -1.66790800E-11
   13.4399996      -4.42701119E-11
   13.5600004      -7.37150618E-11
   13.6800003      -1.00704049E-10
   13.8000002      -1.19962637E-10
   13.9200001      -1.25808489E-10
   14.0400000      -1.12936563E-10
   14.1599998      -7.73751688E-11
   14.2799997      -1.75121636E-11
   14.3999996       6.49462498E-11
   14.5200005       1.64249128E-10
   14.6400003       2.70280714E-10
   14.7600002       3.68805958E-10
   14.8800001       4.42400117E-10
   15.0000000       4.72111794E-10
   15.1199999       4.39815351E-10
   15.2399998       3.31098843E-10
   15.3599997       1.38418291E-10
   15.4799995      -1.35857922E-10
   15.6000004      -4.76969797E-10
   15.7200003      -8.56344329E-10
   15.8400002      -1.23170274E-09
   15.9600000      -1.54907820E-09
   16.0799999      -1.74696080E-09
   16.2000008      -1.76256310E-09
   16.3199997      -1.53990876E-09
   16.4400005      -1.03914766E-09
   16.5599995      -2.46189485E-10
   16.6800003       8.18506818E-10
   16.7999992       2.09331752E-09
   16.9200001       3.47238727E-09
   17.0400009       4.80736517E-09
   17.1599998       5.91489702E-09
   17.2800007       6.59034249E-09
   17.3999996       6.62755362E-09
   17.5200005       5.84375570E-09
   17.6399994       4.10779277E-09
   17.7600002       1.36916911E-09
   17.8799992      -2.31532260E-09
   18.0000000      -6.76104062E-09
   18.1200008      -1.16447705E-08
   18.2399998      -1.65073217E-08
   18.3600006      -2.07721911E-08
   18.4799995      -2.37818814E-08
   18.6000004      -2.48518024E-08
   18.7199993      -2.33398598E-08
   18.8400002      -1.87276417E-08
   18.9599991      -1.07071587E-08
   19.0799999       7.34892591E-10
   19.2000008       1.52446571E-08
   19.3199997       3.20504725E-08
   19.4400005       4.99439210E-08
   19.5599995       6.73011726E-08
   19.6800003       8.21511108E-08
   19.7999992       9.22930425E-08
   19.9200001       9.54631076E-08
   20.0400009       8.95429721E-08
   20.1599998       7.27998852E-08
   20.2800007       4.41416113E-08
   20.3999996       3.36568862E-09
   20.5200005      -4.86210148E-08
   20.6399994      -1.09638080E-07
   20.7600002      -1.76148092E-07
   20.8799992      -2.43277015E-07
   21.0000000      -3.04956359E-07
   21.1200008      -3.54198306E-07
   21.2399998      -3.83505693E-07
   21.3600006      -3.85408924E-07
   21.4799995      -3.53109243E-07
   21.6000004      -2.81198311E-07
   21.7199993      -1.66412050E-07
   21.8400002      -8.36936476E-09
   21.9599991       1.89760087E-07
   22.0799999       4.20717043E-07
   22.2000008       6.72798819E-07
   22.3199997       9.29741589E-07
   22.4400005       1.17087814E-06
   22.5599995       1.37159941E-06
   22.6800003       1.50412609E-06
   22.7999992       1.53858321E-06
   22.9200001       1.44434557E-06
   23.0400009       1.19160279E-06
   23.1599998       7.53075597E-07
   23.2800007       1.05799089E-07
   23.3999996      -7.67124789E-07
   23.5200005      -1.87490480E-06
   23.6399994      -3.21767038E-06
   23.7600002      -4.78540915E-06
   23.8799992      -6.55731492E-06
   24.0000000      -8.50160905E-06
   24.1200008      -1.05758772E-05
   24.2399998      -1.27279409E-05
   24.3600006      -1.48972422E-05
   24.4799995      -1.70167150E-05
   24.6000004      -1.90150549E-05
   24.7199993      -2.08193196E-05
   24.8400002      -2.23577244E-05
   24.9599991      -2.35625339E-05
   25.0799999      -2.43728900E-05
   25.2000008      -2.47374737E-05
   25.3199997      -2.46168456E-05
   25.4400005      -2.39853798E-05
   25.5599995      -2.28326899E-05
   25.6800003      -2.11644710E-05
   25.7999992      -1.90027095E-05
   25.9200001      -1.63852801E-05
   26.0400009      -1.33649210E-05
   26.1599998      -1.00076204E-05
   26.2800007      -6.39051359E-06
   26.3999996      -2.59936428E-06
   26.5200005       1.27427484E-06
   26.6399994       5.13608484E-06
   26.7600002       8.89207968E-06
   26.8799992       1.24516610E-05
   27.0000000       1.57305058E-05
   27.1200008       1.86531997E-05
   27.2399998       2.11555034E-05
   27.3600006       2.31862050E-05
   27.4799995       2.47084918E-05
   27.6000004       2.57007941E-05
   27.7199993       2.61571276E-05
   27.8400002       2.60869019E-05
   27.9599991       2.55142168E-05
   28.0799999       2.44767180E-05
   28.2000008       2.30240312E-05
   28.3199997       2.12158502E-05
   28.4400005       1.91197523E-05
   28.5599995       1.68088191E-05
   28.6800003       1.43591296E-05
   28.7999992       1.18472417E-05
   28.9200001       9.34770287E-06
   29.0400009       6.93072388E-06
   29.1599998       4.66004258E-06
   29.2800007       2.59107424E-06
   29.3999996       7.69408643E-07
   29.5200005      -7.70312056E-07
   29.6399994      -2.00509089E-06
   29.7600002      -2.92383356E-06
   29.8799992      -3.52716597E-06
   30.0000000      -3.82682538E-06
   30.1200008      -3.84465693E-06
   30.2399998      -3.61126467E-06
   30.3600006      -3.16438491E-06
   30.4799995      -2.54704150E-06
   30.6000004      -1.80557993E-06
   30.7199993      -9.87654744E-07
   30.8400002      -1.40261108E-07
   30.9599991       6.92109950E-07
   31.0799999       1.46911907E-06
   31.2000008       2.15596674E-06
   31.3199997       2.72447437E-06
   31.4400005       3.15382749E-06
   31.5599995       3.43096463E-06
   31.6800003       3.55061866E-06
   31.7999992       3.51502604E-06
   31.9200001       3.33333719E-06
   32.0400009       3.02077524E-06
   32.1599998       2.59759372E-06
   32.2799988       2.08789197E-06
   32.4000015       1.51834809E-06
   32.5200005       9.16930674E-07
   32.6399994       3.11638047E-07
   32.7599983      -2.70679152E-07
   32.8800011      -8.05377283E-07
   33.0000000      -1.27092494E-06
   33.1199989      -1.64963353E-06
   33.2400017      -1.92819903E-06
   33.3600006      -2.09804807E-06
   33.4799995      -2.15549039E-06
   33.5999985      -2.10168764E-06
   33.7200012      -1.94244444E-06
   33.8400002      -1.68784243E-06
   33.9599991      -1.35173195E-06
   34.0800018      -9.51101185E-07
   34.2000008      -5.05344474E-07
   34.3199997      -3.54519010E-08
   34.4399986       4.36854179E-07
   34.5600014       8.90009574E-07
   34.6800003       1.30349804E-06
   34.7999992       1.65870756E-06
   34.9199982       1.93972664E-06
   35.0400009       2.13404383E-06
   35.1599998       2.23312350E-06
   35.2799988       2.23282541E-06
   35.4000015       2.13364478E-06
   35.5200005       1.94075164E-06
   35.6399994       1.66381517E-06
   35.7599983       1.31661170E-06
   35.8800011       9.16418628E-07
   36.0000000       4.83215331E-07
   36.1199989       3.87210974E-08
   36.2400017      -3.94690517E-07
   36.3600006      -7.95147287E-07
   36.4799995      -1.14244642E-06
   36.5999985      -1.41917053E-06
   36.7200012      -1.61168737E-06
   36.8400002      -1.71097201E-06
   36.9599991      -1.71319653E-06
   37.0800018      -1.62004187E-06
   37.2000008      -1.43870511E-06
   37.3199997      -1.18158709E-06
   37.4399986      -8.65667516E-07
   37.5600014      -5.11596340E-07
   37.6800003      -1.42543641E-07
   37.7999992       2.17125930E-07
   37.9199982       5.43277622E-07
   38.0400009       8.13445013E-07
   38.1599998       1.00819102E-06
   38.2799988       1.11230497E-06
   38.4000015       1.11575741E-06
   38.5200005       1.01434716E-06
   38.6399994       8.09996664E-07
   38.7599983       5.10670930E-07
   38.8800011       1.29924501E-07
   39.0000000      -3.13898340E-07
   39.1199989      -7.98758435E-07
   39.2400017      -1.30024068E-06
   39.3600006      -1.79301048E-06
   39.4799995      -2.25230929E-06
   39.5999985      -2.65539529E-06
   39.7200012      -2.98282885E-06
   39.8400002      -3.21952461E-06
   39.9599991      -3.35550544E-06
   40.0800018      -3.38631185E-06
   40.2000008      -3.31305182E-06
   40.3199997      -3.14210070E-06
   40.4399986      -2.88447950E-06
   40.5600014      -2.55496911E-06
   40.6800003      -2.17103116E-06
   40.7999992      -1.75161824E-06
   40.9199982      -1.31596016E-06
   41.0400009      -8.82415293E-07
   41.1599998      -4.67461177E-07
   41.2799988      -8.48904591E-08
   41.4000015       2.54743242E-07
   41.5200005       5.44404713E-07
   41.6399994       7.80579569E-07
   41.7599983       9.63018806E-07
   41.8800011       1.09426378E-06
   42.0000000       1.17900493E-06
   42.1199989       1.22333927E-06
   42.2400017       1.23399343E-06
   42.3600006       1.21758421E-06
   42.4799995       1.17997422E-06
   42.5999985       1.12577789E-06
   42.7200012       1.05805145E-06
   42.8400002       9.78185767E-07
   42.9599991       8.86004784E-07
   43.0800018       7.80048481E-07
   43.2000008       6.58010663E-07
   43.3199997       5.17281990E-07
   43.4399986       3.55546121E-07
   43.5600014       1.71367915E-07
   43.6800003      -3.52826000E-08
   43.7999992      -2.62622365E-07
   43.9199982      -5.06805407E-07
   44.0400009      -7.61857848E-07
   44.1599998      -1.01980993E-06
   44.2799988      -1.27102089E-06
   44.4000015      -1.50467497E-06
   44.5200005      -1.70941348E-06
   44.6399994      -1.87405612E-06
   44.7599983      -1.98835733E-06
   44.8800011      -2.04373941E-06
   45.0000000      -2.03394461E-06
   45.1199989      -1.95555640E-06
   45.2400017      -1.80834763E-06
   45.3600006      -1.59542594E-06
   45.4799995      -1.32316359E-06
   45.5999985      -1.00091142E-06
   45.7200012      -6.40518351E-07
   45.8400002      -2.55684483E-07
   45.9599991       1.38803770E-07
   46.0800018       5.27905627E-07
   46.2000008       8.97165933E-07
   46.3199997       1.23350458E-06
   46.4399986       1.52590053E-06
   46.5600014       1.76592323E-06
   46.6800003       1.94807762E-06
   46.7999992       2.06994173E-06
   46.9199982       2.13208909E-06
   47.0400009       2.13781573E-06
   47.1599998       2.09269115E-06
   47.2799988       2.00397835E-06
   47.4000015       1.87997398E-06
   47.5200005       1.72932255E-06
   47.6399994       1.56036162E-06
   47.7599983       1.38055202E-06
   47.8800011       1.19603533E-06
   48.0000000       1.01135026E-06
   48.1199989       8.29324165E-07
   48.2400017       6.51141363E-07
   48.3600006       4.76570079E-07
   48.4799995       3.04319400E-07
   48.5999985       1.32483748E-07
   48.7200012      -4.09734291E-08
   48.8400002      -2.17747285E-07
   48.9599991      -3.98778411E-07
   49.0800018      -5.83938402E-07
   49.2000008      -7.71842963E-07
   49.3199997      -9.59807267E-07
   49.4399986      -1.14394265E-06
   49.5600014      -1.31938111E-06
   49.6800003      -1.48060019E-06
   49.7999992      -1.62181379E-06
   49.9199982      -1.73738727E-06
   50.0400009      -1.82223710E-06
   50.1599998      -1.87217688E-06
   50.2799988      -1.88418005E-06
   50.4000015      -1.85654073E-06
   50.5200005      -1.78892310E-06
   50.6399994      -1.68230747E-06
   50.7599983      -1.53884230E-06
   50.8800011      -1.36163260E-06
   51.0000000      -1.15449120E-06
   51.1199989      -9.21683977E-07
   51.2400017      -6.67700249E-07
   51.3600006      -3.97073165E-07
   51.4799995      -1.14266648E-07
   51.5999985       1.76362235E-07
   51.7200012       4.70527198E-07
   51.8400002       7.63914898E-07
   51.9599991       1.05204424E-06
   52.0800018       1.33010906E-06
   52.2000008       1.59283377E-06
   52.3199997       1.83437248E-06
   52.4399986       2.04827802E-06
   52.5600014       2.22756375E-06
   52.6800003       2.36487381E-06
   52.7999992       2.45276146E-06
   52.9199982       2.48407309E-06
   53.0400009       2.45241858E-06
   53.1599998       2.35269863E-06
   53.2799988       2.18165701E-06
   53.4000015       1.93840674E-06
   53.5200005       1.62489323E-06
   53.6399994       1.24624125E-06
   53.7599983       8.10946460E-07
   53.8800011       3.30875423E-07
   54.0000000      -1.78947985E-07
   54.1199989      -7.00781413E-07
   54.2400017      -1.21482105E-06
   54.3600006      -1.70005342E-06
   54.4799995      -2.13526459E-06
   54.5999985      -2.50015091E-06
   54.7200012      -2.77646745E-06
   54.8400002      -2.94914366E-06
   54.9599991      -3.00728630E-06
   55.0800018      -2.94500455E-06
   55.2000008      -2.76198534E-06
   55.3199997      -2.46377681E-06
   55.4399986      -2.06173740E-06
   55.5600014      -1.57264685E-06
   55.6800003      -1.01798128E-06
   55.7999992      -4.22892924E-07
   55.9199982       1.85058227E-07
   56.0400009       7.77343871E-07
   56.1599998       1.32599450E-06
   56.2799988       1.80512052E-06
   56.4000015       2.19233266E-06
   56.5200005       2.46997320E-06
   56.6399994       2.62607841E-06
   56.7599983       2.65501467E-06
   56.8800011       2.55774466E-06
   57.0000000       2.34170966E-06
   57.1199989       2.02033880E-06
   57.2400017       1.61221431E-06
   57.3600006       1.13995247E-06
   57.4799995       6.28872385E-07
   57.5999985       1.05538945E-07
   57.7200012      -4.03728819E-07
   57.8400002      -8.74289299E-07
   57.9599991      -1.28446527E-06
   58.0800018      -1.61661148E-06
   58.2000008      -1.85790600E-06
   58.3199997      -2.00082718E-06
   58.4399986      -2.04330104E-06
   58.5600014      -1.98852490E-06
   58.6800003      -1.84449470E-06
   58.7999992      -1.62327876E-06
   58.9199982      -1.34009940E-06
   59.0400009      -1.01228864E-06
   59.1599998      -6.58192278E-07
   59.2799988      -2.96095266E-07
   59.4000015       5.67673126E-08
   59.5200005       3.85054165E-07
   59.6399994       6.75975059E-07
   59.7599983       9.19731974E-07
   59.8800011       1.10973406E-06
   60.0000000       1.24258986E-06
   60.1199989       1.31789807E-06
   60.2400017       1.33787023E-06
   60.3600006       1.30682781E-06
   60.4799995       1.23062625E-06
   60.5999985       1.11605698E-06
   60.7200012       9.70280212E-07
   60.8400002       8.00334249E-07
   60.9599991       6.12757503E-07
   61.0800018       4.13348630E-07
   61.2000008       2.07073427E-07
   61.3199997      -1.88574845E-09
   61.4399986      -2.09958245E-07
   61.5600014      -4.13923289E-07
   61.6800003      -6.10600694E-07
   61.7999992      -7.96540860E-07
   61.9199982      -9.67763299E-07
   62.0400009      -1.11958798E-06
   62.1599998      -1.24659653E-06
   62.2799988      -1.34274501E-06
   62.4000015      -1.40163763E-06
   62.5200005      -1.41694966E-06
   62.6399994      -1.38297287E-06
   62.7599983      -1.29524062E-06
   62.8800011      -1.15117427E-06
   63.0000000      -9.50689980E-07
   63.1199989      -6.96695736E-07
   63.2400017      -3.95422347E-07
   63.3600006      -5.65327980E-08
   63.4799995       3.07022134E-07
   63.5999985       6.79417781E-07
   63.7200012       1.04263086E-06
   63.8400002       1.37734548E-06
   63.9599991       1.66403811E-06
   64.0800018       1.88417209E-06
   64.1999969       2.02141928E-06
   64.3199997       2.06282243E-06
   64.4400024       1.99980695E-06
   64.5599976       1.82896986E-06
   64.6800003       1.55257510E-06
   64.8000031       1.17871093E-06
   64.9199982       7.21091453E-07
   65.0400009       1.98499365E-07
   65.1600037      -3.66096288E-07
   65.2799988      -9.46700652E-07
   65.4000015      -1.51566030E-06
   65.5199966      -2.04515345E-06
   65.6399994      -2.50871381E-06
   65.7600021      -2.88269371E-06
   65.8799973      -3.14758017E-06
   66.0000000      -3.28908482E-06
   66.1200027      -3.29894556E-06
   66.2399979      -3.17539548E-06
   66.3600006      -2.92327172E-06
   66.4800034      -2.55376267E-06
   66.5999985      -2.08380675E-06
   66.7200012      -1.53518261E-06
   66.8399963      -9.33338015E-07
   66.9599991      -3.06029875E-07
   67.0800018       3.18154122E-07
   67.1999969       9.11305278E-07
   67.3199997       1.44765477E-06
   67.4400024       1.90490221E-06
   67.5599976       2.26534212E-06
   67.6800003       2.51672259E-06
   67.8000031       2.65279004E-06
   67.9199982       2.67348923E-06
   68.0400009       2.58480623E-06
   68.1600037       2.39826500E-06
   68.2799988       2.13010298E-06
   68.4000015       1.80017923E-06
   68.5199966       1.43067939E-06
   68.6399994       1.04469700E-06
   68.7600021       6.64783443E-07
   68.8799973       3.11558608E-07
   69.0000000       2.47266296E-09
   69.1200027      -2.49197001E-07
   69.2399979      -4.35046189E-07
   69.3600006      -5.51893947E-07
   69.4800034      -6.01756994E-07
   69.5999985      -5.91450828E-07
   69.7200012      -5.31844876E-07
   69.8399963      -4.36826554E-07
   69.9599991      -3.22050539E-07
   70.0800018      -2.03566898E-07
   70.1999969      -9.64341282E-08
   70.3199997      -1.34244837E-08
   70.4400024       3.60744430E-08
   70.5599976       4.68727350E-08
   70.6800003       1.84358573E-08
   70.8000031      -4.50540263E-08
   70.9199982      -1.35044942E-07
   71.0400009      -2.39348992E-07
   71.1600037      -3.43210331E-07
   71.2799988      -4.30627608E-07
   71.4000015      -4.85826604E-07
   71.5199966      -4.94766994E-07
   71.6399994      -4.46559199E-07
   71.7600021      -3.34671626E-07
   71.8799973      -1.57821603E-07
   72.0000000       7.95340966E-08
   72.1200027       3.67164972E-07
   72.2399979       6.89509591E-07
   72.3600006       1.02657930E-06
   72.4800034       1.35527034E-06
   72.5999985       1.65099414E-06
   72.7200012       1.88951435E-06