  -30.0000000       0.00000000    
  -29.8799992       0.00000000    
  -29.7600002       0.00000000    
  -29.6399994       0.00000000    
  -29.5200005       0.00000000    
  -29.3999996       0.00000000    
  -29.2800007       0.00000000    
  -29.1599998       2.80259693E-45
  -29.0400009      -1.40129846E-44
  -28.9200001      -1.98984382E-43
  -28.7999992      -9.26258285E-43
  -28.6800003      -2.82641900E-42
  -28.5599995      -4.16886293E-42
  -28.4400005       9.57086851E-43
  -28.3199997       2.75929681E-41
  -28.2000008       9.95622559E-41
  -28.0799999       2.23296910E-40
  -27.9599991       3.28035563E-40
  -27.8400002       1.73208898E-40
  -27.7199993      -7.08747336E-40
  -27.6000004      -2.87046462E-39
  -27.4799995      -6.39577702E-39
  -27.3600006      -9.83639495E-39
  -27.2399998      -9.02154830E-39
  -27.1200008       3.11301957E-39
  -27.0000000       3.38408450E-38
  -26.8799992       8.36342624E-38
  -26.7600002       1.35741372E-37
  -26.6399994       1.47797987E-37
  -26.5200005       5.57187995E-38
  -26.3999996      -1.99074267E-37
  -26.2800007      -6.16124747E-37
  -26.1599998      -1.07196194E-36
  -26.0400009      -1.28535830E-36
  -25.9200001      -8.65645243E-37
  -25.7999992       5.16856002E-37
  -25.6800003       2.85479088E-36
  -25.5599995       5.52560190E-36
  -25.4400005       7.19455205E-36
  -25.3199997       6.09545478E-36
  -25.2000008       7.79381041E-37
  -25.0799999      -8.81108995E-36
  -24.9599991      -2.03742429E-35
  -24.8400002      -2.90223701E-35
  -24.7199993      -2.83723871E-35
  -24.6000004      -1.31045824E-35
  -24.4799995       1.76047383E-35
  -24.3600006       5.71745127E-35
  -24.2399998       9.10692208E-35
  -24.1200008       1.00086870E-34
  -24.0000000       6.76246632E-35
  -23.8799992      -1.09826357E-35
  -23.7600002      -1.20909478E-34
  -23.6399994      -2.26672114E-34
  -23.5200005      -2.80544239E-34
  -23.3999996      -2.40060030E-34
  -23.2800007      -8.92135181E-35
  -23.1599998       1.45923194E-34
  -23.0400009       3.96782470E-34
  -22.9200001       5.71985174E-34
  -22.7999992       5.93012334E-34
  -22.6800003       4.31929522E-34
  -22.5599995       1.31814174E-34
  -22.4400005      -2.05889374E-34
  -22.3199997      -4.69169183E-34
  -22.2000008      -6.00838601E-34
  -22.0799999      -6.47341708E-34
  -21.9599991      -7.53667652E-34
  -21.8400002      -1.08418663E-33
  -21.7199993      -1.68480299E-33
  -21.6000004      -2.34350852E-33
  -21.4799995      -2.53425066E-33
  -21.3600006      -1.52296662E-33
  -21.2399998       1.33547702E-33
  -21.1200008       6.16675430E-33
  -21.0000000       1.21640574E-32
  -20.8799992       1.74035818E-32
  -20.7600002       1.90855878E-32
  -20.6399994       1.42905994E-32
  -20.5200005       1.15403093E-33
  -20.3999996      -1.98502836E-32
  -20.2800007      -4.49882142E-32
  -20.1599998      -6.72065091E-32
  -20.0400009      -7.72891474E-32
  -19.9200001      -6.62558281E-32
  -19.7999992      -2.85946377E-32
  -19.6800003       3.45032483E-32
  -19.5599995       1.13008077E-31
  -19.4400005       1.88098515E-31
  -19.3199997       2.35095532E-31
  -19.2000008       2.29266961E-31
  -19.0799999       1.53555744E-31
  -18.9599991       6.38244576E-33
  -18.8400002      -1.92905347E-31
  -18.7199993      -4.03336938E-31
  -18.6000004      -5.67979310E-31
  -18.4799995      -6.26035236E-31
  -18.3600006      -5.29499691E-31
  -18.2399998      -2.60608085E-31
  -18.1200008       1.54890294E-31
  -18.0000000       6.43577139E-31
  -17.8799992       1.09275901E-30
  -17.7600002       1.37197456E-30
  -17.6399994       1.36454723E-30
  -17.5200005       1.00262813E-30
  -17.3999996       2.96844015E-31
  -17.2800007      -6.48673189E-31
  -17.1599998      -1.64304450E-30
  -17.0400009      -2.44005074E-30
  -16.9200001      -2.79118425E-30
  -16.7999992      -2.51103649E-30
  -16.6800003      -1.54037927E-30
  -16.5599995       1.05616456E-32
  -16.4400005       1.85510632E-30
  -16.3199997       3.57003239E-30
  -16.2000008       4.68248940E-30
  -16.0799999       4.79032718E-30
  -15.9600000       3.68872384E-30
  -15.8400002       1.46711550E-30
  -15.7200003      -1.45941620E-30
  -15.6000004      -4.40836299E-30
  -15.4799995      -6.57919712E-30
  -15.3599997      -7.26728825E-30
  -15.2399998      -6.08965018E-30
  -15.1199999      -3.15493506E-30
  -15.0000000       8.86794255E-31
  -14.8800001       4.95540195E-30
  -14.7600002       7.81281167E-30
  -14.6400003       8.44469123E-30
  -14.5200005       6.45189315E-30
  -14.3999996       2.32017476E-30
  -14.2799997      -2.56295215E-30
  -14.1599998      -6.23043378E-30
  -14.0400000      -6.78976370E-30
  -13.9200001      -3.27116681E-30
  -13.8000002       3.60274649E-30
  -13.6800003       1.10843543E-29
  -13.5600004       1.48397431E-29
  -13.4399996       1.03138303E-29
  -13.3199997      -5.15496929E-30
  -13.1999998      -3.00594632E-29
  -13.0799999      -5.72253250E-29
  -12.9600000      -7.41314389E-29
  -12.8400002      -6.57958215E-29
  -12.7200003      -2.02302585E-29
  -12.6000004       6.46099362E-29
  -12.4799995       1.74570034E-28
  -12.3599997       2.76651699E-28
  -12.2399998       3.22803649E-28
  -12.1199999       2.61748661E-28
  -12.0000000       5.80831943E-29
  -11.8800001      -2.85249773E-28
  -11.7600002      -7.08130544E-28
  -11.6400003      -1.08707334E-27
  -11.5200005      -1.25029465E-27
  -11.3999996      -1.01893616E-27
  -11.2799997      -2.71992393E-28
  -11.1599998       9.77597610E-28
  -11.0400000       2.51874312E-27
  -10.9200001       3.92012717E-27
  -10.8000002       4.58004052E-27
  -10.6800003       3.86591533E-27
  -10.5600004       1.33659567E-27
  -10.4399996      -2.99437983E-27
  -10.3199997      -8.43268426E-27
  -10.1999998      -1.35178280E-26
  -10.0799999      -1.61809963E-26
  -9.96000004      -1.42086098E-26
  -9.84000015      -5.99099374E-27
  -9.72000027       8.58043698E-27
  -9.60000038       2.73259569E-26
  -9.47999954       4.54441382E-26
  -9.35999966       5.59764050E-26
  -9.23999977       5.12882971E-26
  -9.11999989       2.55215392E-26
  -9.00000000      -2.24027746E-26
  -8.88000011      -8.60495269E-26
  -8.76000023      -1.50118320E-25
  -8.64000034      -1.91627416E-25
  -8.52000046      -1.84429517E-25
  -8.39999962      -1.07050483E-25
  -8.27999973       4.73405875E-26
  -8.15999985       2.61345181E-25
  -8.03999996       4.87715424E-25
  -7.92000008       6.51600143E-25
  -7.80000019       6.63657192E-25
  -7.67999983       4.44654860E-25
  -7.55999994      -4.15510911E-26
  -7.44000006      -7.54211965E-25
  -7.32000017      -1.55252165E-24
  -7.19999981      -2.19635758E-24
  -7.07999992      -2.38221478E-24
  -6.96000004      -1.81876556E-24
  -6.84000015      -3.34796882E-25
  -6.71999979       2.00245635E-24
  -6.59999990       4.79468909E-24
  -6.48000002       7.29007346E-24
  -6.36000013       8.47241898E-24
  -6.23999977       7.28469028E-24
  -6.11999989       2.97433338E-24
  -6.00000000      -4.49980657E-24
  -5.88000011      -1.41087047E-23
  -5.76000023      -2.35878814E-23
  -5.63999987      -2.96141318E-23
  -5.51999998      -2.84273095E-23
  -5.40000010      -1.68988016E-23
  -5.28000021       6.10109126E-24
  -5.15999985       3.83550010E-23
  -5.03999996       7.34313572E-23
  -4.92000008       1.00817926E-22
  -4.80000019       1.07487675E-22
  -4.67999983       8.10566066E-23
  -4.55999994       1.42402299E-23
  -4.44000006      -9.02527873E-23
  -4.32000017      -2.15803516E-22
  -4.19999981      -3.30702179E-22
  -4.07999992      -3.91395471E-22
  -3.96000004      -3.51199916E-22
  -3.83999991      -1.74217545E-22
  -3.72000003       1.47633248E-22
  -3.59999990       5.78562654E-22
  -3.48000002       1.02953401E-21
  -3.35999990       1.36179445E-21
  -3.24000001       1.40829175E-21
  -3.11999989       1.01452450E-21
  -3.00000000       9.48305282E-23
  -2.88000011      -1.30672908E-21
  -2.75999999      -2.96831238E-21
  -2.64000010      -4.47657950E-21
  -2.51999998      -5.26797566E-21
  -2.40000010      -4.73785063E-21
  -2.27999997      -2.41472156E-21
  -2.16000009       1.82495915E-21
  -2.03999996       7.55054987E-21
  -1.91999996       1.36488242E-20
  -1.79999995       1.83507789E-20
  -1.67999995       1.94785121E-20
  -1.55999994       1.49384150E-20
  -1.44000006       3.42219766E-21
  -1.32000005      -1.48055572E-20
  -1.20000005      -3.72384143E-20
  -1.08000004      -5.88418548E-20
 -0.959999979      -7.24189259E-20
 -0.839999974      -6.98214237E-20
 -0.720000029      -4.40298967E-20
 -0.600000024       8.13018376E-21
 -0.479999989       8.31725065E-20
 -0.360000014       1.68850995E-19
 -0.239999995       2.43756375E-19
 -0.119999997       2.79526482E-19
  -1.11022302E-15   2.46222407E-19
  0.119999997       1.20721776E-19
  0.239999995      -1.02998772E-19
  0.360000014      -4.03910846E-19
  0.479999989      -7.27459750E-19
  0.600000024      -9.86133914E-19
  0.720000029      -1.07019273E-18
  0.839999974      -8.70087608E-19
  0.959999979      -3.09350815E-19
   1.08000004       6.16926604E-19
   1.20000005       1.80680524E-18
   1.32000005       3.03127201E-18
   1.44000006       3.94200117E-18
   1.55999994       4.11778863E-18
   1.67999995       3.15399253E-18
   1.79999995       7.88830658E-19
   1.91999996      -2.95306808E-18
   2.03999996      -7.63338317E-18
   2.16000009      -1.23331860E-17
   2.27999997      -1.56933004E-17
   2.40000010      -1.60995436E-17
   2.51999998      -1.20263980E-17
   2.64000010      -2.51398448E-18
   2.75999999       1.22956419E-17
   2.88000011       3.06867397E-17
   3.00000000       4.91241291E-17
   3.11999989       6.24042193E-17
   3.24000001       6.43400403E-17
   3.35999990       4.90313161E-17
   3.48000002       1.26327189E-17
   3.59999990      -4.46410186E-17
   3.72000003      -1.16714179E-16
   3.83999991      -1.90633142E-16
   3.96000004      -2.46956903E-16
   4.07999992      -2.62073211E-16
   4.19999981      -2.12672013E-16
   4.32000017      -8.21356599E-17
   4.44000006       1.32006181E-16
   4.55999994       4.11055163E-16
   4.67999983       7.10589121E-16
   4.80000019       9.60634783E-16
   4.92000008       1.07257209E-15
   5.03999996       9.53893353E-16
   5.15999985       5.30400650E-16
   5.28000021      -2.26649605E-16
   5.40000010      -1.27324330E-15
   5.51999998      -2.47198244E-15
   5.63999987      -3.58613421E-15
   5.76000023      -4.29600542E-15
   5.88000011      -4.24290958E-15
   6.00000000      -3.10134888E-15
   6.11999989      -6.73388228E-16
   6.23999977       3.00863392E-15
   6.36000013       7.59250772E-15
   6.48000002       1.23565607E-14
   6.59999990       1.62281230E-14
   6.71999979       1.78930713E-14
   6.84000015       1.60070914E-14
   6.96000004       9.49959309E-15
   7.07999992      -2.06386312E-15
   7.19999981      -1.81215533E-14
   7.32000017      -3.68418166E-14
   7.44000006      -5.50316628E-14
   7.55999994      -6.83189196E-14
   7.67999983      -7.16716996E-14
   7.80000019      -6.02669837E-14
   7.92000008      -3.06468345E-14
   8.03999996       1.79859400E-14
   8.15999985       8.25655191E-14
   8.27999973       1.55351060E-13
   8.39999962       2.23824147E-13
   8.52000046       2.71575243E-13
   8.64000034       2.80346411E-13
   8.76000023       2.33209746E-13
   8.88000011       1.18614360E-13
   9.00000000      -6.52397786E-14
   9.11999989      -3.06495931E-13
   9.23999977      -5.77169985E-13
   9.35999966      -8.33112550E-13
   9.47999954      -1.01723686E-12
   9.60000038      -1.06645877E-12
   9.72000027      -9.22193420E-13
   9.84000015      -5.43494178E-13
   9.96000004       7.89029419E-14
   10.0799999       9.10089061E-13
   10.1999998       1.86298177E-12
   10.3199997       2.79778414E-12
   10.4399996       3.53135013E-12
   10.5600004       3.85775006E-12
   10.6800003       3.57958194E-12
   10.8000002       2.54741454E-12
   10.9200001       7.02444559E-13
   11.0400000      -1.88457431E-12
   11.1599998      -4.98638847E-12
   11.2799997      -8.21268401E-12
   11.3999996      -1.10309505E-11
   11.5200005      -1.28187946E-11
   11.6400003      -1.29471859E-11
   11.7600002      -1.08884299E-11
   11.8800001      -6.33664388E-12
   12.0000000       6.76918645E-13
   12.1199999       9.69505986E-12
   12.2399998       1.97945688E-11
   12.3599997       2.96143700E-11
   12.4799995       3.74645176E-11
   12.6000004       4.15180806E-11
   12.7200003       4.00744542E-11
   12.8400002       3.18679527E-11
   12.9600000       1.63818056E-11
   13.0799999      -5.88231156E-12
   13.1999998      -3.32332703E-11
   13.3199997      -6.27680755E-11
   13.4399996      -9.05351072E-11
   13.5600004      -1.11898317E-10
   13.6800003      -1.22088950E-10
   13.8000002      -1.16898810E-10
   13.9200001      -9.34375147E-11
   14.0400000      -5.08506570E-11
   14.1599998       9.11854620E-12
   14.2799997       8.18398890E-11
   14.3999996       1.59875335E-10
   14.5200005       2.33484537E-10
   14.6400003       2.91561053E-10
   14.7600002       3.22939453E-10
   14.8800001       3.17948168E-10
   15.0000000       2.70025918E-10
   15.1199999       1.77179521E-10
   15.2399998       4.30493176E-11
   15.3599997      -1.22631641E-10
   15.4799995      -3.04342912E-10
   15.6000004      -4.81918505E-10
   15.7200003      -6.32488284E-10
   15.8400002      -7.33062777E-10
   15.9600000      -7.63493435E-10
   16.0799999      -7.09453218E-10
   16.2000008      -5.65032132E-10
   16.3199997      -3.34550304E-10
   16.4400005      -3.32493616E-11
   16.5599995       3.13358839E-10
   16.6800003       6.71545375E-10
   16.7999992       1.00269382E-09
   16.9200001       1.26758726E-09
   17.0400009       1.43117485E-09
   17.1599998       1.46722212E-09
   17.2800007       1.36221023E-09
   17.3999996       1.11789256E-09
   17.5200005       7.52042206E-10
   17.6399994       2.97136676E-10
   17.7600002      -2.03025124E-10
   17.8799992      -6.98487601E-10
   18.0000000      -1.13953458E-09
   18.1200008      -1.48354740E-09
   18.2399998      -1.70141912E-09
   18.3600006      -1.78259030E-09
   18.4799995      -1.73786152E-09
   18.6000004      -1.59934188E-09
   18.7199993      -1.41718892E-09
   18.8400002      -1.25316080E-09
   18.9599991      -1.17140275E-09
   19.0799999      -1.22725408E-09
   19.2000008      -1.45519674E-09
   19.3199997      -1.85729554E-09
   19.4400005      -2.39358955E-09
   19.5599995      -2.97590486E-09
   19.6800003      -3.46639784E-09
   19.7999992      -3.68190589E-09
   19.9200001      -3.40480510E-09
   20.0400009      -2.40063236E-09
   20.1599998      -4.42233222E-10
   20.2800007       2.66039146E-09
   20.3999996       7.02593139E-09
   20.5200005       1.26653790E-08
   20.6399994       1.94460164E-08
   20.7600002       2.70590998E-08
   20.8799992       3.49950682E-08
   21.0000000       4.25305409E-08
   21.1200008       4.87316605E-08
   21.2399998       5.24783204E-08
   21.3600006       5.25133999E-08
   21.4799995       4.75203876E-08
   21.6000004       3.62312598E-08
   21.7199993       1.75646893E-08
   21.8400002      -9.20795973E-09
   21.9599991      -4.42741808E-08
   22.0799999      -8.70782131E-08
   22.2000008      -1.36117350E-07
   22.3199997      -1.88751784E-07
   22.4400005      -2.41046052E-07
   22.5599995      -2.87661265E-07
   22.6800003      -3.21818163E-07
   22.7999992      -3.35349853E-07
   22.9200001      -3.18860117E-07
   23.0400009      -2.61998082E-07
   23.1599998      -1.53854799E-07
   23.2800007       1.65222893E-08
   23.3999996       2.59508511E-07
   23.5200005       5.84196982E-07
   23.6399994       9.97639972E-07
   23.7600002       1.50407686E-06
   23.8799992       2.10419375E-06
   24.0000000       2.79446681E-06
   24.1200008       3.56664054E-06
   24.2399998       4.40738904E-06
   24.3600006       5.29821182E-06
   24.4799995       6.21558229E-06
   24.6000004       7.13139934E-06
   24.7199993       8.01371698E-06
   24.8400002       8.82776203E-06
   24.9599991       9.53721428E-06
   25.0799999       1.01056812E-05
   25.2000008       1.04983292E-05
   25.3199997       1.06835760E-05
   25.4400005       1.06347788E-05
   25.5599995       1.03317980E-05
   25.6800003       9.76237607E-06
   25.7999992       8.92321441E-06
   25.9200001       7.82070401E-06
   26.0400009       6.47122397E-06
   26.1599998       4.90099274E-06
   26.2800007       3.14544423E-06
   26.3999996       1.24814540E-06
   26.5200005      -7.40700614E-07
   26.6399994      -2.76611217E-06
   26.7600002      -4.77045432E-06
   26.8799992      -6.69573501E-06
   27.0000000      -8.48595664E-06
   27.1200008      -1.00894040E-05
   27.2399998      -1.14607565E-05
   27.3600006      -1.25629122E-05
   27.4799995      -1.33684380E-05
   27.6000004      -1.38605719E-05
   27.7199993      -1.40337352E-05
   27.8400002      -1.38935347E-05
   27.9599991      -1.34562679E-05
   28.0799999      -1.27479661E-05
   28.2000008      -1.18030339E-05
   28.3199997      -1.06625748E-05
   28.4400005      -9.37248751E-06
   28.5599995      -7.98143901E-06
   28.6800003      -6.53882262E-06
   28.7999992      -5.09278789E-06
   28.9200001      -3.68844371E-06
   29.0400009      -2.36630149E-06
   29.1599998      -1.16101546E-06
   29.2800007      -1.00459644E-07
   29.3999996       7.94847267E-07
   29.5200005       1.51196878E-06
   29.6399994       2.04545245E-06
   29.7600002       2.39694032E-06
   29.8799992       2.57453280E-06
   30.0000000       2.59196145E-06
   30.1200008       2.46761897E-06
   30.2399998       2.22350559E-06
   30.3600006       1.88414299E-06
   30.4799995       1.47549520E-06
   30.6000004       1.02393949E-06
   30.7199993       5.55313363E-07
   30.8400002       9.40611145E-08
   30.9599991      -3.37505668E-07
   31.0799999      -7.19826573E-07
   31.2000008      -1.03658465E-06
   31.3199997      -1.27507337E-06
   31.4400005      -1.42643933E-06
   31.5599995      -1.48580386E-06
   31.6800003      -1.45226647E-06
   31.7999992      -1.32879427E-06
   31.9200001      -1.12199882E-06
   32.0400009      -8.41806411E-07
   32.1599998      -5.01027216E-07
   32.2799988      -1.14830947E-07
   32.4000015       2.99859465E-07
   32.5200005       7.25040650E-07
   32.6399994       1.14234911E-06
   32.7599983       1.53380415E-06
   32.8800011       1.88254899E-06
   33.0000000       2.17355523E-06
   33.1199989       2.39426618E-06
   33.2400017       2.53514213E-06
   33.3600006       2.59008357E-06
   33.4799995       2.55670784E-06
   33.5999985       2.43646059E-06
   33.7200012       2.23455413E-06
   33.8400002       1.95972916E-06
   33.9599991       1.62385174E-06
   34.0800018       1.24135738E-06
   34.2000008       8.28573718E-07
   34.3199997       4.02950491E-07
   34.4399986      -1.77616730E-08
   34.5600014      -4.16343056E-07
   34.6800003      -7.76903562E-07
   34.7999992      -1.08560653E-06
   34.9199982      -1.33128151E-06
   35.0400009      -1.50589369E-06
   35.1599998      -1.60484842E-06
   35.2799988      -1.62711581E-06
   35.4000015      -1.57517388E-06
   35.5200005      -1.45477668E-06
   35.6399994      -1.27456349E-06
   35.7599983      -1.04553521E-06
   35.8800011      -7.80429332E-07
   36.0000000      -4.93032701E-07
   36.1199989      -1.97470015E-07
   36.2400017       9.24906445E-08
   36.3600006       3.64078090E-07
   36.4799995       6.06072490E-07
   36.5999985       8.09247979E-07
   36.7200012       9.66688162E-07
   36.8400002       1.07396454E-06
   36.9599991       1.12918110E-06
   37.0800018       1.13289332E-06
   37.2000008       1.08791653E-06
   37.3199997       9.99045710E-07
   37.4399986       8.72710189E-07
   37.5600014       7.16587124E-07
   37.6800003       5.39199334E-07
   37.7999992       3.49517933E-07
   37.9199982       1.56587717E-07
   38.0400009      -3.08124974E-08
   38.1599998      -2.04466360E-07
   38.2799988      -3.56970418E-07
   38.4000015      -4.81939594E-07
   38.5200005      -5.74170656E-07
   38.6399994      -6.29768465E-07
   38.7599983      -6.46237993E-07
   38.8800011      -6.22546565E-07
   39.0000000      -5.59156092E-07
   39.1199989      -4.58023379E-07
   39.2400017      -3.22566990E-07
   39.3600006      -1.57595252E-07
   39.4799995       3.08092645E-08
   39.5999985       2.35452418E-07
   39.7200012       4.48241138E-07
   39.8400002       6.60446688E-07
   39.9599991       8.63014861E-07
   40.0800018       1.04691753E-06
   40.2000008       1.20353502E-06
   40.3199997       1.32505431E-06
   40.4399986       1.40486770E-06
   40.5600014       1.43795069E-06
   40.6800003       1.42119973E-06
   40.7999992       1.35370635E-06
   40.9199982       1.23695111E-06
   41.0400009       1.07489802E-06
   41.1599998       8.73975921E-07
   41.2799988       6.42939085E-07
   41.4000015       3.92600697E-07
   41.5200005       1.35443656E-07
   41.6399994      -1.14884486E-07
   41.7599983      -3.44176357E-07
   41.8800011      -5.38348502E-07
   42.0000000      -6.84175518E-07
   42.1199989      -7.70041140E-07
   42.2400017      -7.86668579E-07
   42.3600006      -7.27788517E-07
   42.4799995      -5.90703337E-07
   42.5999985      -3.76707703E-07
   42.7200012      -9.13289497E-08
   42.8400002       2.55641254E-07
   42.9599991       6.50343793E-07
   43.0800018       1.07528467E-06
   43.2000008       1.50999813E-06
   43.3199997       1.93192091E-06
   43.4399986       2.31744070E-06
   43.5600014       2.64307664E-06
   43.6800003       2.88672481E-06
   43.7999992       3.02891158E-06
   43.9199982       3.05397384E-06
   44.0400009       2.95109953E-06
   44.1599998       2.71515978E-06
   44.2799988       2.34727440E-06
   44.4000015       1.85506758E-06
   44.5200005       1.25258430E-06
   44.6399994       5.59865043E-07
   44.7599983      -1.97811985E-07
   44.8800011      -9.90983381E-07
   45.0000000      -1.78729681E-06
   45.1199989      -2.55298096E-06
   45.2400017      -3.25441192E-06
   45.3600006      -3.85968815E-06
   45.4799995      -4.34013145E-06
   45.5999985      -4.67163090E-06
   45.7200012      -4.83576332E-06
   45.8400002      -4.82063433E-06
   45.9599991      -4.62140270E-06
   46.0800018      -4.24047585E-06
   46.2000008      -3.68737301E-06
   46.3199997      -2.97828296E-06
   46.4399986      -2.13535486E-06
   46.5600014      -1.18576656E-06
   46.6800003      -1.60634542E-07
   46.7999992       9.06180674E-07
   46.9199982       1.97931126E-06
   47.0400009       3.02310673E-06
   47.1599998       4.00280578E-06
   47.2799988       4.88561227E-06
   47.4000015       5.64165975E-06
   47.5200005       6.24483800E-06
   47.6399994       6.67348468E-06
   47.7599983       6.91093965E-06
   47.8800011       6.94595610E-06
   48.0000000       6.77299477E-06
   48.1199989       6.39238488E-06
   48.2400017       5.81037102E-06
   48.3600006       5.03903630E-06
   48.4799995       4.09610630E-06
   48.5999985       3.00462420E-06
   48.7200012       1.79249344E-06
   48.8400002       4.91883327E-07
   48.9599991      -8.61507203E-07
   49.0800018      -2.22932476E-06
   49.2000008      -3.57156750E-06
   49.3199997      -4.84770862E-06
   49.4399986      -6.01791317E-06
   49.5600014      -7.04432114E-06
   49.6800003      -7.89234764E-06
   49.7999992      -8.53197162E-06
   49.9199982      -8.93894867E-06
   50.0400009      -9.09589926E-06
   50.1599998      -8.99322458E-06
   50.2799988      -8.62978686E-06
   50.4000015      -8.01331771E-06
   50.5200005      -7.16050545E-06
   50.6399994      -6.09674044E-06
   50.7599983      -4.85549435E-06
   50.8800011      -3.47733680E-06
   51.0000000      -2.00860586E-06
   51.1199989      -4.99758983E-07
   51.2400017       9.96528684E-07
   51.3600006       2.42746069E-06
   51.4799995       3.74231331E-06
   51.5999985       4.89462991E-06
   51.7200012       5.84430700E-06
   51.8400002       6.55945905E-06
   51.9599991       7.01795125E-06
   52.0800018       7.20851040E-06
   52.2000008       7.13132886E-06
   52.3199997       6.79810955E-06
   52.4399986       6.23152664E-06
   52.5600014       5.46411320E-06
   52.6800003       4.53661914E-06
   52.7999992       3.49592051E-06
   52.9199982       2.39258975E-06
   53.0400009       1.27826218E-06
   53.1599998       2.02951199E-07
   53.2799988      -7.87527142E-07
   53.4000015      -1.65386655E-06
   53.5200005      -2.36517712E-06
   53.6399994      -2.90037133E-06
   53.7599983      -3.24894563E-06
   53.8800011      -3.41111308E-06
   54.0000000      -3.39729036E-06
   54.1199989      -3.22697906E-06
   54.2400017      -2.92712525E-06
   54.3600006      -2.53007556E-06
   54.4799995      -2.07127550E-06
   54.5999985      -1.58686510E-06
   54.7200012      -1.11133591E-06
   54.8400002      -6.75405261E-07
   54.9599991      -3.04242349E-07
   55.0800018      -1.61516613E-08
   55.2000008       1.78211778E-07
   55.3199997       2.76064981E-07
   55.4399986       2.82164564E-07
   55.5600014       2.07967403E-07
   55.6800003       7.03648837E-08
   55.7999992      -1.09899560E-07
   55.9199982      -3.10004140E-07
   56.0400009      -5.06878109E-07
   56.1599998      -6.78953995E-07
   56.2799988      -8.07720539E-07
   56.4000015      -8.78976095E-07
   56.5200005      -8.83705070E-07
   56.6399994      -8.18534318E-07
   56.7599983      -6.85755936E-07
   56.8800011      -4.92935555E-07
   57.0000000      -2.52153399E-07
   57.1199989       2.10501536E-08
   57.2400017       3.08934858E-07
   57.3600006       5.92928416E-07
   57.4799995       8.54997495E-07
   57.5999985       1.07892527E-06
   57.7200012       1.25140741E-06
   57.8400002       1.36289589E-06
   57.9599991       1.40814313E-06
   58.0800018       1.38641769E-06
   58.2000008       1.30139165E-06
   58.3199997       1.16071874E-06
   58.4399986       9.75347575E-07
   58.5600014       7.58625902E-07
   58.6800003       5.25268661E-07
   58.7999992       2.90266655E-07
   58.9199982       6.78161243E-08
   59.0400009      -1.29656144E-07
   59.1599998      -2.92304236E-07
   59.2799988      -4.13459020E-07
   59.4000015      -4.89970660E-07
   59.5200005      -5.22280800E-07
   59.6399994      -5.14225349E-07
   59.7599983      -4.72589022E-07
   59.8800011      -4.06449232E-07
   60.0000000      -3.26361999E-07
   60.1199989      -2.43451581E-07
   60.2400017      -1.68473321E-07
   60.3600006      -1.10918528E-07
   60.4799995      -7.82283180E-08
   60.5999985      -7.51737730E-08
   60.7200012      -1.03448521E-07
   60.8400002      -1.61504033E-07
   60.9599991      -2.44640916E-07
   61.0800018      -3.45350145E-07
   61.2000008      -4.53880233E-07
   61.3199997      -5.58990450E-07
   61.4399986      -6.48834714E-07
   61.5600014      -7.11912037E-07
   61.6800003      -7.38012659E-07
   61.7999992      -7.19089257E-07
   61.9199982      -6.49986021E-07
   62.0400009      -5.28968542E-07
   62.1599998      -3.58009714E-07
   62.2799988      -1.42806442E-07
   62.4000015       1.07481945E-07
   62.5200005       3.80759303E-07
   62.6399994       6.62749244E-07
   62.7599983       9.37931077E-07
   62.8800011       1.19058848E-06
   63.0000000       1.40589475E-06
   63.1199989       1.57095258E-06
   63.2400017       1.67570818E-06
   63.3600006       1.71366844E-06
   63.4799995       1.68236136E-06
   63.5999985       1.58350235E-06
   63.7200012       1.42284659E-06
   63.8400002       1.20973812E-06
   63.9599991       9.56387908E-07
   64.0800018       6.76935031E-07
   64.1999969       3.86368527E-07
   64.3199997       9.93941143E-08
   64.4400024      -1.70657927E-07
   64.5599976      -4.12793099E-07
   64.6800003      -6.19099183E-07
   64.8000031      -7.85213444E-07
   64.9199982      -9.10468543E-07
   65.0400009      -9.97703069E-07
   65.1600037      -1.05275217E-06
   65.2799988      -1.08366066E-06
   65.4000015      -1.09969164E-06
   65.5199966      -1.11021654E-06
   65.6399994      -1.12359328E-06
   65.7600021      -1.14613545E-06
   65.8799973      -1.18127298E-06
   66.0000000      -1.22898996E-06
   66.1200027      -1.28559873E-06
   66.2399979      -1.34388370E-06
   66.3600006      -1.39361453E-06
   66.4800034      -1.42239344E-06
   66.5999985      -1.41677356E-06
   66.7200012      -1.36355732E-06
   66.8399963      -1.25116560E-06
   66.9599991      -1.07095843E-06
   67.0800018      -8.18392493E-07
   67.1999969      -4.93904736E-07
   67.3199997      -1.03439234E-07
   67.4400024       3.41443297E-07
   67.5599976       8.23897381E-07
   67.6800003       1.32255627E-06
   67.8000031       1.81268138E-06
   67.9199982       2.26762199E-06
   68.0400009       2.66048301E-06
   68.1600037       2.96588360E-06
   68.2799988       3.16167780E-06
   68.4000015       3.23051540E-06
   68.5199966       3.16112732E-06
   68.6399994       2.94924325E-06
   68.7600021       2.59807166E-06
   68.8799973       2.11831070E-06
   69.0000000       1.52768393E-06
   69.1200027       8.50034041E-07
   69.2399979       1.14036688E-07
   69.3600006      -6.48378318E-07
   69.4800034      -1.40379132E-06
   69.5999985      -2.11912561E-06
   69.7200012      -2.76342871E-06
   69.8399963      -3.30948842E-06
   69.9599991      -3.73518628E-06
   70.0800018      -4.02450723E-06
   70.1999969      -4.16815328E-06
   70.3199997      -4.16374132E-06
   70.4400024      -4.01558054E-06
   70.5599976      -3.73407715E-06
   70.6800003      -3.33481535E-06
   70.8000031      -2.83740019E-06
   70.9199982      -2.26415409E-06
   71.0400009      -1.63876530E-06
   71.1600037      -9.84986400E-07
   71.2799988      -3.25468307E-07
   71.4000015       3.19198449E-07
   71.5199966       9.31186605E-07
   71.6399994       1.49585389E-06
   71.7600021       2.00188379E-06
   71.8799973       2.44116995E-06
   72.0000000       2.80848940E-06
   72.1200027       3.10102541E-06
   72.2399979       3.31780961E-06
   72.3600006       3.45915987E-06
   72.4800034       3.52617485E-06
   72.5999985       3.52034976E-06
   72.7200012       3.44334899E-06