  -30.0000000       0.00000000    
  -29.8799992       0.00000000    
  -29.7600002       0.00000000    
  -29.6399994       0.00000000    
  -29.5200005       0.00000000    
  -29.3999996       0.00000000    
  -29.2800007      -1.40129846E-45
  -29.1599998      -1.41531145E-43
  -29.0400009      -1.42932443E-42
  -28.9200001      -7.35821824E-42
  -28.7999992      -2.56829983E-41
  -28.6800003      -6.21489882E-41
  -28.5599995      -9.44405100E-41
  -28.4400005      -1.37004951E-41
  -28.3199997       4.44802961E-40
  -28.2000008       1.66598973E-39
  -28.0799999       3.79292678E-39
  -27.9599991       5.84390505E-39
  -27.8400002       4.52747903E-39
  -27.7199993      -6.12404703E-39
  -27.6000004      -3.22279785E-38
  -27.4799995      -7.28212661E-38
  -27.3600006      -1.09129425E-37
  -27.2399998      -9.74840182E-38
  -27.1200008       2.12622757E-38
  -27.0000000       2.84289827E-37
  -26.8799992       6.44994993E-37
  -26.7600002       9.19000411E-37
  -26.6399994       7.97198113E-37
  -26.5200005      -1.73504712E-38
  -26.3999996      -1.54950643E-36
  -26.2800007      -3.28042527E-36
  -26.1599998      -4.08647582E-36
  -26.0400009      -2.62653357E-36
  -25.9200001       1.75554403E-36
  -25.7999992       7.91096864E-36
  -25.6800003       1.22611967E-35
  -25.5599995       9.56160837E-36
  -25.4400005      -4.41041800E-36
  -25.3199997      -2.87145863E-35
  -25.2000008      -5.35061381E-35
  -25.0799999      -5.95958417E-35
  -24.9599991      -2.40331370E-35
  -24.8400002       6.75992592E-35
  -24.7199993       2.05191929E-34
  -24.6000004       3.41524363E-34
  -24.4799995       3.92555604E-34
  -24.3600006       2.58496419E-34
  -24.2399998      -1.33002181E-34
  -24.1200008      -7.70807737E-34
  -24.0000000      -1.51195463E-33
  -23.8799992      -2.06846598E-33
  -23.7600002      -2.05441295E-33
  -23.6399994      -1.10359643E-33
  -23.5200005       9.57594983E-34
  -23.3999996       3.92849955E-33
  -23.2800007       7.11552518E-33
  -23.1599998       9.35590280E-33
  -23.0400009       9.24209879E-33
  -22.9200001       5.55140285E-33
  -22.7999992      -2.19380380E-33
  -22.6800003      -1.31932740E-32
  -22.5599995      -2.50788399E-32
  -22.4400005      -3.40789624E-32
  -22.3199997      -3.57630138E-32
  -22.2000008      -2.63221221E-32
  -22.0799999      -4.12876852E-33
  -21.9599991       2.88763743E-32
  -21.8400002       6.65136022E-32
  -21.7199993       9.88743328E-32
  -21.6000004       1.14207822E-31
  -21.4799995       1.01965871E-31
  -21.3600006       5.63421789E-32
  -21.2399998      -2.06774908E-32
  -21.1200008      -1.17794197E-31
  -21.0000000      -2.15165989E-31
  -20.8799992      -2.87664791E-31
  -20.7600002      -3.10121553E-31
  -20.6399994      -2.63465265E-31
  -20.5200005      -1.40367602E-31
  -20.3999996       5.08958961E-32
  -20.2800007       2.85239347E-31
  -20.1599998       5.22550356E-31
  -20.0400009       7.12370877E-31
  -19.9200001       8.01173221E-31
  -19.7999992       7.41838827E-31
  -19.6800003       5.04725019E-31
  -19.5599995       8.90783448E-32
  -19.4400005      -4.67478305E-31
  -19.3199997      -1.08472390E-30
  -19.2000008      -1.64458186E-30
  -19.0799999      -2.00742462E-30
  -18.9599991      -2.03967134E-30
  -18.8400002      -1.64829642E-30
  -18.7199993      -8.13920470E-31
  -18.6000004       3.87796738E-31
  -18.4799995       1.78528609E-30
  -18.3600006       3.13444798E-30
  -18.2399998       4.16270235E-30
  -18.1200008       4.62323847E-30
  -18.0000000       4.34535649E-30
  -17.8799992       3.26814250E-30
  -17.7600002       1.45076786E-30
  -17.6399994      -9.38830474E-31
  -17.5200005      -3.64777376E-30
  -17.3999996      -6.36233064E-30
  -17.2800007      -8.72284742E-30
  -17.1599998      -1.03282755E-29
  -17.0400009      -1.07401116E-29
  -16.9200001      -9.50551526E-30
  -16.7999992      -6.22382317E-30
  -16.6800003      -6.74956161E-31
  -16.5599995       6.99067130E-30
  -16.4400005       1.60337098E-29
  -16.3199997       2.49527486E-29
  -16.2000008       3.14666981E-29
  -16.0799999       3.27743985E-29
  -15.9600000       2.61771405E-29
  -15.8400002       1.00507189E-29
  -15.7200003      -1.50033509E-29
  -15.6000004      -4.51775468E-29
  -15.4799995      -7.31343669E-29
  -15.3599997      -8.88298053E-29
  -15.2399998      -8.17789817E-29
  -15.1199999      -4.46359272E-29
  -15.0000000       2.26268737E-29
  -14.8800001       1.09246462E-28
  -14.7600002       1.92574927E-28
  -14.6400003       2.40916430E-28
  -14.5200005       2.21079761E-28
  -14.3999996       1.10005218E-28
  -14.2799997      -9.20097563E-29
  -14.1599998      -3.50708545E-28
  -14.0400000      -5.95087219E-28
  -13.9200001      -7.27098210E-28
  -13.8000002      -6.46037311E-28
  -13.6800003      -2.85339858E-28
  -13.5600004       3.46226280E-28
  -13.4399996       1.13248456E-27
  -13.3199997       1.84349783E-27
  -13.1999998       2.16987439E-27
  -13.0799999       1.80445365E-27
  -12.9600000       5.63165075E-28
  -12.8400002      -1.48245482E-27
  -12.7200003      -3.90700080E-27
  -12.6000004      -5.92292637E-27
  -12.4799995      -6.51092434E-27
  -12.3599997      -4.70783059E-27
  -12.2399998      -1.85758095E-29
  -12.1199999       7.14700585E-27
  -12.0000000       1.51716117E-26
  -11.8800001       2.12491102E-26
  -11.7600002       2.18802682E-26
  -11.6400003       1.38944798E-26
  -11.5200005      -4.13274136E-27
  -11.3999996      -3.04148712E-26
  -11.2799997      -5.89834750E-26
  -11.1599998      -7.98355524E-26
  -11.0400000      -8.07100725E-26
  -10.9200001      -5.06419519E-26
  -10.8000002       1.51582781E-26
  -10.6800003       1.10279439E-25
  -10.5600004       2.13770385E-25
  -10.4399996       2.90605116E-25
  -10.3199997       2.97709425E-25
  -10.1999998       1.96104609E-25
  -10.0799999      -3.22905883E-26
  -9.96000004      -3.67136728E-25
  -9.84000015      -7.37621727E-25
  -9.72000027      -1.02315023E-24
  -9.60000038      -1.07296334E-24
  -9.47999954      -7.46957797E-25
  -9.35999966       2.67322558E-26
  -9.23999977       1.19024329E-24
  -9.11999989       2.51130240E-24
  -9.00000000       3.58026297E-24
  -8.88000011       3.87091956E-24
  -8.76000023       2.87486473E-24
  -8.64000034       2.97233939E-25
  -8.52000046      -3.72668462E-24
  -8.39999962      -8.46225214E-24
  -8.27999973      -1.25388139E-23
  -8.15999985      -1.41252392E-23
  -8.03999996      -1.13606415E-23
  -7.92000008      -3.01294063E-24
  -7.80000019       1.07571881E-23
  -7.67999983       2.77480467E-23
  -7.55999994       4.34738752E-23
  -7.44000006       5.16160967E-23
  -7.32000017       4.53549235E-23
  -7.19999981       1.95479243E-23
  -7.07999992      -2.65933973E-23
  -6.96000004      -8.70256646E-23
  -6.84000015      -1.47564939E-22
  -6.71999979      -1.86787053E-22
  -6.59999990      -1.79917829E-22
  -6.48000002      -1.05836854E-22
  -6.36000013       4.36994800E-23
  -6.23999977       2.54716875E-22
  -6.11999989       4.84734554E-22
  -6.00000000       6.63201699E-22
  -5.88000011       7.01823218E-22
  -5.76000023       5.16106227E-22
  -5.63999987       5.62860776E-23
  -5.51999998      -6.58288143E-22
  -5.40000010      -1.51128281E-21
  -5.28000021      -2.28064741E-21
  -5.15999985      -2.66133689E-21
  -5.03999996      -2.32722843E-21
  -4.92000008      -1.03061928E-21
  -4.80000019       1.27560934E-21
  -4.67999983       4.32280509E-21
  -4.55999994       7.45997359E-21
  -4.44000006       9.68145841E-21
  -4.32000017       9.78547071E-21
  -4.19999981       6.67475260E-21
  -4.07999992      -2.30375278E-22
  -3.96000004      -1.05471239E-20
  -3.83999991      -2.25828644E-20
  -3.72000003      -3.32448670E-20
  -3.59999990      -3.83598191E-20
  -3.48000002      -3.34969697E-20
  -3.35999990      -1.52721969E-20
  -3.24000001       1.70537193E-20
  -3.11999989       6.00508051E-20
  -3.00000000       1.05188423E-19
  -2.88000011       1.39072920E-19
  -2.75999999       1.45334962E-19
  -2.64000010       1.08356990E-19
  -2.51999998       1.85471229E-20
  -2.40000010      -1.21751241E-19
  -2.27999997      -2.93246358E-19
  -2.16000009      -4.57551751E-19
  -2.03999996      -5.59913438E-19
  -1.91999996      -5.38260125E-19
  -1.79999995      -3.38773784E-19
  -1.67999995       6.37085654E-20
  -1.55999994       6.44384399E-19
  -1.44000006       1.31226983E-18
  -1.32000005       1.90630948E-18
  -1.20000005       2.21068279E-18
  -1.08000004       1.99361653E-18
 -0.959999979       1.06903106E-18
 -0.839999974      -6.26674772E-19
 -0.720000029      -2.95832254E-18
 -0.600000024      -5.53867730E-18
 -0.479999989      -7.72421670E-18
 -0.360000014      -8.68351294E-18
 -0.239999995      -7.55145341E-18
 -0.119999997      -3.66388113E-18
  -1.11022302E-15   3.15809782E-18
  0.119999997       1.23326773E-17
  0.239999995       2.23328095E-17
  0.360000014       3.06852971E-17
  0.479999989       3.42358707E-17
  0.600000024       2.97247452E-17
  0.720000029       1.46507285E-17
  0.839999974      -1.16871687E-17
  0.959999979      -4.71788186E-17
   1.08000004      -8.62128596E-17
   1.20000005      -1.19636125E-16
   1.32000005      -1.35657568E-16
   1.44000006      -1.21864959E-16
   1.55999994      -6.82973717E-17
   1.67999995       2.87881253E-17
   1.79999995       1.63154203E-16
   1.91999996       3.15818246E-16
   2.03999996       4.54436247E-16
   2.16000009       5.35912981E-16
   2.27999997       5.12934724E-16
   2.40000010       3.44403570E-16
   2.51999998       8.75040207E-18
   2.64000010      -4.82053068E-16
   2.75999999      -1.07103462E-15
   2.88000011      -1.65126479E-15
   3.00000000      -2.07134347E-15
   3.11999989      -2.15429172E-15
   3.24000001      -1.73070282E-15
   3.35999990      -6.83858773E-16
   3.48000002       9.99314542E-16
   3.59999990       3.18144326E-15
   3.72000003       5.54501776E-15
   3.83999991       7.59381978E-15
   3.96000004       8.69758164E-15
   4.07999992       8.18654040E-15
   4.19999981       5.49346606E-15
   4.32000017       3.28744022E-16
   4.44000006      -7.13908929E-15
   4.55999994      -1.61367332E-14
   4.67999983      -2.52201265E-14
   4.80000019      -3.23350864E-14
   4.92000008      -3.50395372E-14
   5.03999996      -3.08992435E-14
   5.15999985      -1.80349594E-14
   5.28000021       4.24260126E-15
   5.40000010       3.48160933E-14
   5.51999998       7.03041141E-14
   5.63999987       1.04920792E-13
   5.76000023       1.30799451E-13
   5.88000011       1.38881325E-13
   6.00000000       1.20387410E-13
   6.11999989       6.87757549E-14
   6.23999977      -1.80485442E-14
   6.36000013      -1.35636985E-13
   6.48000002      -2.71485390E-13
   6.59999990      -4.04619236E-13
   6.71999979      -5.06746067E-13
   6.84000015      -5.45289671E-13
   6.96000004      -4.88355016E-13
   7.07999992      -3.11308000E-13
   7.19999981      -4.23424698E-15
   7.32000017       4.20873135E-13
   7.44000006       9.24674616E-13
   7.55999994       1.43842078E-12
   7.67999983       1.86678104E-12
   7.80000019       2.09665185E-12
   7.92000008       2.01227164E-12
   8.03999996       1.51590253E-12
   8.15999985       5.52090654E-13
   8.27999973      -8.67755629E-13
   8.39999962      -2.64481015E-12
   8.52000046      -4.58126159E-12
   8.64000034      -6.38263487E-12
   8.76000023      -7.67796850E-12
   8.88000011      -8.05990691E-12
   9.00000000      -7.14396554E-12
   9.11999989      -4.64270072E-12
   9.23999977      -4.46747945E-13
   9.35999966       5.29886681E-12
   9.47999954       1.21373510E-11
   9.60000038       1.92769429E-11
   9.72000027       2.56159538E-11
   9.84000015       2.98263532E-11
   9.96000004       3.04997590E-11
   10.0799999       2.63507844E-11
   10.1999998       1.64622638E-11
   10.3199997       5.45911515E-13
   10.4399996      -2.08178527E-11
   10.5600004      -4.60041172E-11
   10.6800003      -7.22770108E-11
   10.8000002      -9.58740171E-11
   10.9200001      -1.12271040E-10
   11.0400000      -1.16639656E-10
   11.1599998      -1.04482679E-10
   11.2799997      -7.24042978E-11
   11.3999996      -1.89398879E-11
   11.5200005       5.46583091E-11
   11.6400003       1.43804371E-10
   11.7600002       2.40265113E-10
   11.8800001       3.32276595E-10
   12.0000000       4.05191464E-10
   12.1199999       4.42710035E-10
   12.2399998       4.28682839E-10
   12.3599997       3.49391210E-10
   12.4799995       1.96122868E-10
   12.6000004      -3.22252121E-11
   12.7200003      -3.26856847E-10
   12.8400002      -6.67485400E-10
   12.9600000      -1.02183162E-09
   13.0799999      -1.34655853E-09
   13.1999998      -1.58989244E-09
   13.3199997      -1.69602565E-09
   13.4399996      -1.61119440E-09
   13.5600004      -1.29108912E-09
   13.6800003      -7.09004633E-10
   13.8000002       1.36097175E-10
   13.9200001       1.21262667E-09
   14.0400000       2.45162868E-09
   14.1599998       3.74538622E-09
   14.2799997       4.95035168E-09
   14.3999996       5.89509286E-09
   14.5200005       6.39353237E-09
   14.6400003       6.26318775E-09
   14.7600002       5.34748157E-09
   14.8800001       3.54052521E-09
   15.0000000       8.12125867E-10
   15.1199999      -2.76974488E-09
   15.2399998      -7.02210778E-09
   15.3599997      -1.16389023E-08
   15.4799995      -1.61945515E-08
   15.6000004      -2.01613872E-08
   15.7200003      -2.29421779E-08
   15.8400002      -2.39176021E-08
   15.9600000      -2.25070398E-08
   16.0799999      -1.82392217E-08
   16.2000008      -1.08276739E-08
   16.3199997      -2.44308462E-10
   16.4400005       1.32165852E-08
   16.5599995       2.88922859E-08
   16.6800003       4.57318166E-08
   16.7999992       6.23096739E-08
   16.9200001       7.68787558E-08
   17.0400009       8.74654873E-08
   17.1599998       9.20069638E-08
   17.2800007       8.85258231E-08
   17.3999996       7.53347749E-08
   17.5200005       5.12581551E-08
   17.6399994       1.58545284E-08
   17.7600002      -3.03791658E-08
   17.8799992      -8.58428493E-08
   18.0000000      -1.47729793E-07
   18.1200008      -2.12004878E-07
   18.2399998      -2.73482243E-07
   18.3600006      -3.26015169E-07
   18.4799995      -3.62804514E-07
   18.6000004      -3.76824147E-07
   18.7199993      -3.61352818E-07
   18.8400002      -3.10592071E-07
   18.9599991      -2.20341093E-07
   19.0799999      -8.86896530E-08
   19.2000008       8.33150793E-08
   19.3199997       2.91078749E-07
   19.4400005       5.25998473E-07
   19.5599995       7.75180467E-07
   19.6800003       1.02138210E-06
   19.7999992       1.24321571E-06
   19.9200001       1.41563737E-06
   20.0400009       1.51073118E-06
   20.1599998       1.49877962E-06
   20.2800007       1.34959419E-06
   20.3999996       1.03405819E-06
   20.5200005       5.25818393E-07
   20.6399994      -1.96953991E-07
   20.7600002      -1.14982686E-06
   20.8799992      -2.34049321E-06
   21.0000000      -3.76738035E-06
   21.1200008      -5.41858162E-06
   21.2399998      -7.27119368E-06
   21.3600006      -9.29113321E-06
   21.4799995      -1.14334798E-05
   21.6000004      -1.36433619E-05
   21.7199993      -1.58573894E-05
   21.8400002      -1.80055886E-05
   21.9599991      -2.00137783E-05
   22.0799999      -2.18062924E-05
   22.2000008      -2.33089322E-05
   22.3199997      -2.44520270E-05
   22.4400005      -2.51734473E-05
   22.5599995      -2.54214356E-05
   22.6800003      -2.51571037E-05
   22.7999992      -2.43564973E-05
   22.9200001      -2.30120841E-05
   23.0400009      -2.11336173E-05
   23.1599998      -1.87483020E-05
   23.2800007      -1.59002720E-05
   23.3999996      -1.26493587E-05
   23.5200005      -9.06922196E-06
   23.6399994      -5.24493726E-06
   23.7600002      -1.27010412E-06
   23.8799992       2.75636853E-06
   24.0000000       6.73367276E-06
   24.1200008       1.05625686E-05
   24.2399998       1.41487517E-05
   24.3600006       1.74059969E-05
   24.4799995       2.02589581E-05
   24.6000004       2.26454977E-05
   24.7199993       2.45185001E-05
   24.8400002       2.58471009E-05
   24.9599991       2.66172628E-05
   25.0799999       2.68317872E-05
   25.2000008       2.65096696E-05
   25.3199997       2.56849635E-05
   25.4400005       2.44051116E-05
   25.5599995       2.27289001E-05
   25.6800003       2.07241028E-05
   25.7999992       1.84648925E-05
   25.9200001       1.60291693E-05
   26.0400009       1.34958509E-05
   26.1599998       1.09422845E-05
   26.2800007       8.44179340E-06
   26.3999996       6.06150888E-06
   26.5200005       3.86048896E-06
   26.6399994       1.88821650E-06
   26.7600002       1.83486392E-07
   26.8799992      -1.22628410E-06
   27.0000000      -2.32532761E-06
   27.1200008      -3.10938776E-06
   27.2399998      -3.58519173E-06
   27.3600006      -3.76957109E-06
   27.4799995      -3.68828046E-06
   27.6000004      -3.37456322E-06
   27.7199993      -2.86752561E-06
   27.8400002      -2.21038863E-06
   27.9599991      -1.44867795E-06
   28.0799999      -6.28419286E-07
   28.2000008       2.05597345E-07
   28.3199997       1.01142734E-06
   28.4400005       1.75140440E-06
   28.5599995       2.39335418E-06
   28.6800003       2.91154788E-06
   28.7999992       3.28737951E-06
   28.9200001       3.50974506E-06
   29.0400009       3.57511908E-06
   29.1599998       3.48733784E-06
   29.2800007       3.25709971E-06
   29.3999996       2.90120988E-06
   29.5200005       2.44160105E-06
   29.6399994       1.90416893E-06
   29.7600002       1.31747390E-06
   29.8799992       7.11357984E-07
   30.0000000       1.15534910E-07
   30.1200008      -4.41788217E-07
   30.2399998      -9.35197761E-07
   30.3600006      -1.34321317E-06
   30.4799995      -1.64922767E-06
   30.6000004      -1.84220619E-06
   30.7199993      -1.91710546E-06
   30.8400002      -1.87499609E-06
   30.9599991      -1.72287912E-06
   31.0799999      -1.47320452E-06
   31.2000008      -1.14311536E-06
   31.3199997      -7.53457812E-07
   31.4400005      -3.27605250E-07
   31.5599995       1.09835540E-07
   31.6800003       5.34370372E-07
   31.7999992       9.22937772E-07
   31.9200001       1.25513191E-06
   32.0400009       1.51425968E-06
   32.1599998       1.68817269E-06
   32.2799988       1.76982996E-06
   32.4000015       1.75756202E-06
   32.5200005       1.65502524E-06
   32.6399994       1.47085404E-06
   32.7599983       1.21803771E-06
   32.8800011       9.13061740E-07
   33.0000000       5.74871478E-07
   33.1199989       2.23720079E-07
   33.2400017      -1.20027480E-07
   33.3600006      -4.37064955E-07
   33.4799995      -7.10222366E-07
   33.5999985      -9.25391703E-07
   33.7200012      -1.07225276E-06
   33.8400002      -1.14476268E-06
   33.9599991      -1.14139254E-06
   34.0800018      -1.06510151E-06
   34.2000008      -9.23063851E-07
   34.3199997      -7.26169901E-07
   34.4399986      -4.88338117E-07
   34.5600014      -2.25682228E-07
   34.6800003       4.44149926E-08
   34.7999992       3.04269633E-07
   34.9199982       5.36851473E-07
   35.0400009       7.26677513E-07
   35.1599998       8.60599357E-07
   35.2799988       9.28447662E-07
   35.4000015       9.23506377E-07
   35.5200005       8.42797931E-07
   35.6399994       6.87171848E-07
   35.7599983       4.61198766E-07
   35.8800011       1.72882267E-07
   36.0000000      -1.66791139E-07
   36.1199989      -5.44434215E-07
   36.2400017      -9.44941121E-07
   36.3600006      -1.35223002E-06
   36.4799995      -1.75000730E-06
   36.5999985      -2.12251507E-06
   36.7200012      -2.45522438E-06
   36.8400002      -2.73544424E-06
   36.9599991      -2.95281802E-06
   37.0800018      -3.09968914E-06
   37.2000008      -3.17132731E-06
   37.3199997      -3.16600813E-06
   37.4399986      -3.08495441E-06
   37.5600014      -2.93215135E-06
   37.6800003      -2.71405111E-06
   37.7999992      -2.43919476E-06
   37.9199982      -2.11777137E-06
   38.0400009      -1.76114338E-06
   38.1599998      -1.38136090E-06
   38.2799988      -9.90687568E-07
   38.4000015      -6.01154113E-07
   38.5200005      -2.24158171E-07
   38.6399994       1.29884270E-07
   38.7599983       4.51826793E-07
   38.8800011       7.34017249E-07
   39.0000000       9.70459155E-07
   39.1199989       1.15691091E-06
   39.2400017       1.29092439E-06
   39.3600006       1.37182769E-06
   39.4799995       1.40065185E-06
   39.5999985       1.38000701E-06
   39.7200012       1.31391005E-06
   39.8400002       1.20756886E-06
   39.9599991       1.06712764E-06
   40.0800018       8.99385270E-07
   40.2000008       7.11491623E-07
   40.3199997       5.10641371E-07
   40.4399986       3.03775295E-07
   40.5600014       9.73074421E-08
   40.6800003      -1.03106281E-07
   40.7999992      -2.92744573E-07
   40.9199982      -4.67930420E-07
   41.0400009      -6.26067958E-07
   41.1599998      -7.65603829E-07
   41.2799988      -8.85918553E-07
   41.4000015      -9.87157478E-07
   41.5200005      -1.07001722E-06
   41.6399994      -1.13550675E-06
   41.7599983      -1.18470564E-06
   41.8800011      -1.21854202E-06
   42.0000000      -1.23760969E-06
   42.1199989      -1.24204223E-06
   42.2400017      -1.23145537E-06
   42.3600006      -1.20496202E-06
   42.4799995      -1.16125727E-06
   42.5999985      -1.09876601E-06
   42.7200012      -1.01583680E-06
   42.8400002      -9.10966151E-07
   42.9599991      -7.83030430E-07
   43.0800018      -6.31506737E-07
   43.2000008      -4.56662519E-07
   43.3199997      -2.59699419E-07
   43.4399986      -4.28406715E-08
   43.5600014       1.90644059E-07
   43.6800003       4.36476228E-07
   43.7999992       6.89465026E-07
   43.9199982       9.43654413E-07
   44.0400009       1.19251047E-06
   44.1599998       1.42913939E-06
   44.2799988       1.64652113E-06
   44.4000015       1.83775387E-06
   44.5200005       1.99629540E-06
   44.6399994       2.11620022E-06
   44.7599983       2.19234153E-06
   44.8800011       2.22061794E-06
   45.0000000       2.19814069E-06
   45.1199989       2.12339387E-06
   45.2400017       1.99636111E-06
   45.3600006       1.81861526E-06
   45.4799995       1.59335889E-06
   45.5999985       1.32540606E-06
   45.7200012       1.02110084E-06
   45.8400002       6.88164732E-07
   45.9599991       3.35470276E-07
   46.0800018      -2.72527849E-08
   46.2000008      -3.89773334E-07
   46.3199997      -7.41760061E-07
   46.4399986      -1.07320761E-06
   46.5600014      -1.37486359E-06
   46.6800003      -1.63862694E-06
   46.7999992      -1.85789145E-06
   46.9199982      -2.02780734E-06
   47.0400009      -2.14544161E-06
   47.1599998      -2.20982110E-06
   47.2799988      -2.22185827E-06
   47.4000015      -2.18416312E-06
   47.5200005      -2.10075927E-06
   47.6399994      -1.97672671E-06
   47.7599983      -1.81780877E-06
   47.8800011      -1.63001164E-06
   48.0000000      -1.41923510E-06
   48.1199989      -1.19096694E-06
   48.2400017      -9.50063907E-07
   48.3600006      -7.00635326E-07
   48.4799995      -4.46034079E-07
   48.5999985      -1.88948476E-07
   48.7200012       6.84228425E-08
   48.8400002       3.24137233E-07
   48.9599991       5.76247373E-07
   49.0800018       8.22545530E-07
   49.2000008       1.06034486E-06
   49.3199997       1.28632496E-06
   49.4399986       1.49646030E-06
   49.5600014       1.68604504E-06
   49.6800003       1.84981445E-06
   49.7999992       1.98215594E-06
   49.9199982       2.07739595E-06
   50.0400009       2.13014141E-06
   50.1599998       2.13564954E-06
   50.2799988       2.09020232E-06
   50.4000015       1.99145688E-06
   50.5200005       1.83874965E-06
   50.6399994       1.63333209E-06
   50.7599983       1.37852282E-06
   50.8800011       1.07976143E-06
   51.0000000       7.44556303E-07
   51.1199989       3.82322128E-07
   51.2400017       4.10760759E-09
   51.3600006      -3.77781220E-07
   51.4799995      -7.50251388E-07
   51.5999985      -1.09996995E-06
   51.7200012      -1.41396515E-06
   51.8400002      -1.68025235E-06
   51.9599991      -1.88845377E-06
   52.0800018      -2.03037075E-06
   52.2000008      -2.10047529E-06
   52.3199997      -2.09628047E-06
   52.4399986      -2.01855823E-06
   52.5600014      -1.87138005E-06
   52.6800003      -1.66196560E-06
   52.7999992      -1.40033967E-06
   52.9199982      -1.09880989E-06
   53.0400009      -7.71293401E-07
   53.1599998      -4.32536439E-07
   53.2799988      -9.72776988E-08
   53.4000015       2.20583658E-07
   53.5200005       5.08754397E-07
   53.6399994       7.57191060E-07
   53.7599983       9.58572173E-07
   53.8800011       1.10856502E-06
   54.0000000       1.20586924E-06
   54.1199989       1.25203917E-06
   54.2400017       1.25110694E-06
   54.3600006       1.20904178E-06
   54.4799995       1.13310341E-06
   54.5999985       1.03114428E-06
   54.7200012       9.10928406E-07
   54.8400002       7.79527738E-07
   54.9599991       6.42845805E-07
   55.0800018       5.05309117E-07
   55.2000008       3.69744612E-07
   55.3199997       2.37446869E-07
   55.4399986       1.08417105E-07
   55.5600014      -1.82584969E-08
   55.6800003      -1.43937299E-07
   55.7999992      -2.69908952E-07
   55.9199982      -3.96900333E-07
   56.0400009      -5.24650886E-07
   56.1599998      -6.51602988E-07
   56.2799988      -7.74742489E-07
   56.4000015      -8.89608714E-07
   56.5200005      -9.90477588E-07
   56.6399994      -1.07070764E-06
   56.7599983      -1.12322221E-06
   56.8800011      -1.14108923E-06
   57.0000000      -1.11815564E-06
   57.1199989      -1.04968240E-06
   57.2400017      -9.32931016E-07
   57.3600006      -7.67650761E-07
   57.4799995      -5.56426528E-07
   57.5999985      -3.04850460E-07
   57.7200012      -2.14973248E-08
   57.8400002       2.82308179E-07
   57.9599991       5.92928075E-07
   58.0800018       8.95035043E-07
   58.2000008       1.17239540E-06
   58.3199997       1.40876921E-06
   58.4399986       1.58887815E-06
   58.5600014       1.69938505E-06
   58.6800003       1.72982539E-06
   58.7999992       1.67342841E-06
   58.9199982       1.52777409E-06
   59.0400009       1.29523323E-06
   59.1599998       9.83152290E-07
   59.2799988       6.03754927E-07
   59.4000015       1.73748504E-07
   59.5200005      -2.86359068E-07
   59.6399994      -7.53209861E-07
   59.7599983      -1.20177299E-06
   59.8800011      -1.60669344E-06
   60.0000000      -1.94373956E-06
   60.1199989      -2.19127105E-06
   60.2400017      -2.33163837E-06
   60.3600006      -2.35242578E-06
   60.4799995      -2.24745122E-06
   60.5999985      -2.01745183E-06
   60.7200012      -1.67039218E-06
   60.8400002      -1.22135611E-06
   60.9599991      -6.92007347E-07
   61.0800018      -1.09628289E-07
   61.2000008       4.94224480E-07
   61.3199997       1.08538438E-06
   61.4399986       1.62897243E-06
   61.5600014       2.09141854E-06
   61.6800003       2.44249145E-06
   61.7999992       2.65720837E-06
   61.9199982       2.71750241E-06
   62.0400009       2.61353739E-06
   62.1599998       2.34457184E-06
   62.2799988       1.91930599E-06
   62.4000015       1.35567223E-06
   62.5200005       6.80064034E-07
   62.6399994      -7.39657793E-08
   62.7599983      -8.67471158E-07
   62.8800011      -1.65824588E-06
   63.0000000      -2.40320037E-06
   63.1199989      -3.06084053E-06
   63.2400017      -3.59369324E-06
   63.3600006      -3.97053100E-06
   63.4799995      -4.16824514E-06
   63.5999985      -4.17325691E-06
   63.7200012      -3.98235852E-06
   63.8400002      -3.60294212E-06
   63.9599991      -3.05259005E-06
   64.0800018      -2.35805283E-06
   64.1999969      -1.55368718E-06
   64.3199997      -6.79448931E-07
   64.4400024       2.21425211E-07
   64.5599976       1.10489805E-06
   64.6800003       1.92861376E-06
   64.8000031       2.65422955E-06
   64.9199982       3.24944835E-06
   65.0400009       3.68963993E-06
   65.1600037       3.95895540E-06
   65.2799988       4.05088576E-06
   65.4000015       3.96825180E-06
   65.5199966       3.72264526E-06
   65.6399994       3.33338448E-06
   65.7600021       2.82607311E-06
   65.8799973       2.23086795E-06
   66.0000000       1.58058322E-06
   66.1200027       9.08754885E-07
   66.2399979       2.47787256E-07
   66.3600006      -3.72711014E-07
   66.4800034      -9.27313295E-07
   66.5999985      -1.39581960E-06
   66.7200012      -1.76392189E-06
   66.8399963      -2.02347928E-06
   66.9599991      -2.17241723E-06
   67.0800018      -2.21428809E-06
   67.1999969      -2.15754562E-06
   67.3199997      -2.01460216E-06
   67.4400024      -1.80074164E-06
   67.5599976      -1.53296435E-06
   67.6800003      -1.22883921E-06
   67.8000031      -9.05428749E-07
   67.9199982      -5.78347851E-07
   68.0400009      -2.61000821E-07
   68.1600037       3.59676697E-08
   68.2799988       3.04988305E-07
   68.4000015       5.41642919E-07
   68.5199966       7.44508384E-07
   68.6399994       9.14789325E-07
   68.7600021       1.05577271E-06
   68.8799973       1.17214995E-06
   69.0000000       1.26926022E-06
   69.1200027       1.35231255E-06
   69.2399979       1.42565091E-06
   69.3600006       1.49212622E-06
   69.4800034       1.55262558E-06
   69.5999985       1.60580930E-06
   69.7200012       1.64808409E-06
   69.8399963       1.67382416E-06
   69.9599991       1.67583346E-06
   70.0800018       1.64601840E-06
   70.1999969       1.57621878E-06
   70.3199997       1.45913191E-06
   70.4400024       1.28924751E-06
   70.5599976       1.06370805E-06
   70.6800003       7.83010080E-07
   70.8000031       4.51470498E-07
   70.9199982       7.74009550E-08
   71.0400009      -3.27046109E-07
   71.1600037      -7.46366936E-07
   71.2799988      -1.16251067E-06
   71.4000015      -1.55594773E-06
   71.5199966      -1.90692754E-06
   71.6399994      -2.19683079E-06
   71.7600021      -2.40951067E-06
   71.8799973      -2.53251096E-06
   72.0000000      -2.55806390E-06
   72.1200027      -2.48377387E-06
   72.2399979      -2.31293029E-06
   72.3600006      -2.05440938E-06
   72.4800034      -1.72216596E-06
   72.5999985      -1.33434696E-06
   72.7200012      -9.12085738E-07