  -30.0000000       0.00000000    
  -29.8799992       0.00000000    
  -29.7600002       0.00000000    
  -29.6399994       0.00000000    
  -29.5200005       0.00000000    
  -29.3999996       0.00000000    
  -29.2800007       0.00000000    
  -29.1599998       1.47591993E-25
  -29.0400009       1.65201131E-24
  -28.9200001       9.55490101E-24
  -28.7999992       3.82983355E-23
  -28.6800003       1.21205411E-22
  -28.5599995       3.28742068E-22
  -28.4400005       8.06527401E-22
  -28.3199997       1.83139423E-21
  -28.2000008       3.80458492E-21
  -28.0799999       6.91678492E-21
  -27.9599991       9.99824273E-21
  -27.8400002       8.09417797E-21
  -27.7199993      -1.09321256E-20
  -27.6000004      -6.85857451E-20
  -27.4799995      -1.91867180E-19
  -27.3600006      -3.96701269E-19
  -27.2399998      -6.54091880E-19
  -27.1200008      -8.43362850E-19
  -27.0000000      -7.13125331E-19
  -26.8799992       1.10757985E-19
  -26.7600002       2.02156055E-18
  -26.6399994       5.19913331E-18
  -26.5200005       9.26688290E-18
  -26.3999996       1.29424997E-17
  -26.2800007       1.38807690E-17
  -26.1599998       8.96053738E-18
  -26.0400009      -4.77860751E-18
  -25.9200001      -2.85353158E-17
  -25.7999992      -5.97980181E-17
  -25.6800003      -9.07582502E-17
  -25.5599995      -1.08089391E-16
  -25.4400005      -9.50839416E-17
  -25.3199997      -3.66504837E-17
  -25.2000008       7.33474946E-17
  -25.0799999       2.24289216E-16
  -24.9599991       3.83654653E-16
  -24.8400002       4.98149923E-16
  -24.7199993       5.03802756E-16
  -24.6000004       3.45167223E-16
  -24.4799995      -6.11534433E-20
  -24.3600006      -4.98649990E-16
  -24.2399998      -1.05153434E-15
  -24.1200008      -1.50435550E-15
  -24.0000000      -1.68218012E-15
  -23.8799992      -1.44297039E-15
  -23.7600002      -7.34962494E-16
  -23.6399994       3.62935857E-16
  -23.5200005       1.63749563E-15
  -23.3999996       2.78416193E-15
  -23.2800007       3.48990216E-15
  -23.1599998       3.53134494E-15
  -23.0400009       2.85251940E-15
  -22.9200001       1.58867340E-15
  -22.7999992       2.01584015E-17
  -22.6800003      -1.53142022E-15
  -22.5599995      -2.82457684E-15
  -22.4400005      -3.78213975E-15
  -22.3199997      -4.49267334E-15
  -22.2000008      -5.11718184E-15
  -22.0799999      -5.73645440E-15
  -21.9599991      -6.21477645E-15
  -21.8400002      -6.16640197E-15
  -21.7199993      -5.07793668E-15
  -21.6000004      -2.56671481E-15
  -21.4799995       1.33097908E-15
  -21.3600006       6.00540388E-15
  -21.2399998       1.04016112E-14
  -21.1200008       1.34738242E-14
  -21.0000000       1.48332071E-14
  -20.8799992       1.52783551E-14
  -20.7600002       1.68152286E-14
  -20.6399994       2.18735925E-14
  -20.5200005       3.17380704E-14
  -20.3999996       4.46606321E-14
  -20.2800007       5.45334414E-14
  -20.1599998       5.11476644E-14
  -20.0400009       2.27561466E-14
  -19.9200001      -3.91367846E-14
  -19.7999992      -1.33927767E-13
  -19.6800003      -2.47159959E-13
  -19.5599995      -3.49388568E-13
  -19.4400005      -4.00583240E-13
  -19.3199997      -3.60342940E-13
  -19.2000008      -2.01933603E-13
  -19.0799999       7.39349174E-14
  -18.9599991       4.30674295E-13
  -18.8400002       7.97050522E-13
  -18.7199993       1.07983143E-12
  -18.6000004       1.18590240E-12
  -18.4799995       1.04834566E-12
  -18.3600006       6.48955445E-13
  -18.2399998       3.00649635E-14
  -18.1200008      -7.08566289E-13
  -18.0000000      -1.42770160E-12
  -17.8799992      -1.97703008E-12
  -17.7600002      -2.22695343E-12
  -17.6399994      -2.09640508E-12
  -17.5200005      -1.57120020E-12
  -17.3999996      -7.10283720E-13
  -17.2800007       3.60234656E-13
  -17.1599998       1.46404796E-12
  -17.0400009       2.40112466E-12
  -16.9200001       2.98194867E-12
  -16.7999992       3.06640152E-12
  -16.6800003       2.60125732E-12
  -16.5599995       1.64682287E-12
  -16.4400005       3.81514210E-13
  -16.3199997      -9.24476641E-13
  -16.2000008      -1.96771570E-12
  -16.0799999      -2.49211264E-12
  -15.9600000      -2.37006552E-12
  -15.8400002      -1.65662102E-12
  -15.7200003      -5.92616884E-13
  -15.6000004       4.53254594E-13
  -15.4799995       1.09267131E-12
  -15.3599997       1.04505597E-12
  -15.2399998       2.41586997E-13
  -15.1199999      -1.13309427E-12
  -15.0000000      -2.68142236E-12
  -14.8800001      -3.90712592E-12
  -14.7600002      -4.36699028E-12
  -14.6400003      -3.80843360E-12
  -14.5200005      -2.24452423E-12
  -14.3999996       5.98920327E-14
  -14.2799997       2.68430525E-12
  -14.1599998       5.19295414E-12
  -14.0400000       7.26426167E-12
  -13.9200001       8.75797612E-12
  -13.8000002       9.69301809E-12
  -13.6800003       1.01449994E-11
  -13.5600004       1.01065883E-11
  -13.4399996       9.37331549E-12
  -13.3199997       7.51429561E-12
  -13.1999998       3.96158453E-12
  -13.0799999      -1.78857504E-12
  -12.9600000      -9.91170167E-12
  -12.8400002      -2.00077593E-11
  -12.7200003      -3.09581909E-11
  -12.6000004      -4.09566617E-11
  -12.4799995      -4.77414150E-11
  -12.3599997      -4.90031314E-11
  -12.2399998      -4.28896432E-11
  -12.1199999      -2.84932425E-11
  -12.0000000      -6.19930886E-12
  -11.8800001       2.21987428E-11
  -11.7600002       5.36588690E-11
  -11.6400003       8.42958342E-11
  -11.5200005       1.09941528E-10
  -11.3999996       1.26731819E-10
  -11.2799997       1.31593139E-10
  -11.1599998       1.22543503E-10
  -11.0400000       9.87897195E-11
  -10.9200001       6.06721132E-11
  -10.8000002       9.55353071E-12
  -10.6800003      -5.22471649E-11
  -10.5600004      -1.21418570E-10
  -10.4399996      -1.93529054E-10
  -10.3199997      -2.62891625E-10
  -10.1999998      -3.22546018E-10
  -10.0799999      -3.64474229E-10
  -9.96000004      -3.80103587E-10
  -9.84000015      -3.61057656E-10
  -9.72000027      -3.00022340E-10
  -9.60000038      -1.91536967E-10
  -9.47999954      -3.25245837E-11
  -9.35999966       1.77560383E-10
  -9.23999977       4.36980091E-10
  -9.11999989       7.42258255E-10
  -9.00000000       1.08884146E-09
  -8.88000011       1.47167634E-09
  -8.76000023       1.88554661E-09
  -8.64000034       2.32511521E-09
  -8.52000046       2.78473311E-09
  -8.39999962       3.25817506E-09
  -8.27999973       3.73851305E-09
  -8.15999985       4.21830526E-09
  -8.03999996       4.69018824E-09
  -7.92000008       5.14782039E-09
  -7.80000019       5.58697044E-09
  -7.67999983       6.00646510E-09
  -7.55999994       6.40867137E-09
  -7.44000006       6.79929979E-09
  -7.32000017       7.18647675E-09
  -7.19999981       7.57928653E-09
  -7.07999992       7.98615840E-09
  -6.96000004       8.41360936E-09
  -6.84000015       8.86577656E-09
  -6.71999979       9.34499322E-09
  -6.59999990       9.85330040E-09
  -6.48000002       1.03945039E-08
  -6.36000013       1.09760592E-08
  -6.23999977       1.16101218E-08
  -6.11999989       1.23132118E-08
  -6.00000000       1.31043567E-08
  -5.88000011       1.40020511E-08
  -5.76000023       1.50207562E-08
  -5.63999987       1.61678688E-08
  -5.51999998       1.74420212E-08
  -5.40000010       1.88332265E-08
  -5.28000021       2.03249222E-08
  -5.15999985       2.18974385E-08
  -5.03999996       2.35321149E-08
  -4.92000008       2.52151704E-08
  -4.80000019       2.69405476E-08
  -4.67999983       2.87113373E-08
  -4.55999994       3.05396988E-08
  -4.44000006       3.24455876E-08
  -4.32000017       3.44547111E-08
  -4.19999981       3.65962478E-08
  -4.07999992       3.89006907E-08
  -3.96000004       4.13980743E-08
  -3.83999991       4.41167352E-08
  -3.72000003       4.70826187E-08
  -3.59999990       5.03190911E-08
  -3.48000002       5.38472520E-08
  -3.35999990       5.76865915E-08
  -3.24000001       6.18557934E-08
  -3.11999989       6.63733672E-08
  -3.00000000       7.12577801E-08
  -2.88000011       7.65269377E-08
  -2.75999999       8.21967561E-08
  -2.64000010       8.82792435E-08
  -2.51999998       9.47805674E-08
  -2.40000010       1.01699811E-07
  -2.27999997       1.09029145E-07
  -2.16000009       1.16755899E-07
  -2.03999996       1.24866503E-07
  -1.91999996       1.33351662E-07
  -1.79999995       1.42211690E-07
  -1.67999995       1.51460611E-07
  -1.55999994       1.61127858E-07
  -1.44000006       1.71256787E-07
  -1.32000005       1.81900276E-07
  -1.20000005       1.93114317E-07
  -1.08000004       2.04951064E-07
 -0.959999979       2.17453447E-07
 -0.839999974       2.30652901E-07
 -0.720000029       2.44570970E-07
 -0.600000024       2.59224237E-07
 -0.479999989       2.74631958E-07
 -0.360000014       2.90823209E-07
 -0.239999995       3.07842271E-07
 -0.119999997       3.25749852E-07
  -1.11022302E-15   3.44619082E-07
  0.119999997       3.64527949E-07
  0.239999995       3.85548844E-07
  0.360000014       4.07739037E-07
  0.479999989       4.31133941E-07
  0.600000024       4.55746516E-07
  0.720000029       4.81572329E-07
  0.839999974       5.08600067E-07
  0.959999979       5.36824757E-07
   1.08000004       5.66259928E-07
   1.20000005       5.96945995E-07
   1.32000005       6.28952705E-07
   1.44000006       6.62374191E-07
   1.55999994       6.97319194E-07
   1.67999995       7.33898844E-07
   1.79999995       7.72215174E-07
   1.91999996       8.12353164E-07
   2.03999996       8.54378641E-07
   2.16000009       8.98341284E-07
   2.27999997       9.44280885E-07
   2.40000010       9.92235414E-07
   2.51999998       1.04224841E-06
   2.64000010       1.09437281E-06
   2.75999999       1.14867169E-06
   2.88000011       1.20521713E-06
   3.00000000       1.26408634E-06
   3.11999989       1.32535797E-06
   3.24000001       1.38910821E-06
   3.35999990       1.45540798E-06
   3.48000002       1.52432142E-06
   3.59999990       1.59590400E-06
   3.72000003       1.67020369E-06
   3.83999991       1.74726176E-06
   3.96000004       1.82711585E-06
   4.07999992       1.90980518E-06
   4.19999981       1.99537453E-06
   4.32000017       2.08388155E-06
   4.44000006       2.17539809E-06
   4.55999994       2.27001237E-06
   4.67999983       2.36782375E-06
   4.80000019       2.46893728E-06
   4.92000008       2.57345323E-06
   5.03999996       2.68145891E-06
   5.15999985       2.79301889E-06
   5.28000021       2.90817434E-06
   5.40000010       3.02694139E-06
   5.51999998       3.14931913E-06
   5.63999987       3.27529642E-06
   5.76000023       3.40486326E-06
   5.88000011       3.53801647E-06
   6.00000000       3.67476650E-06
   6.11999989       3.81513792E-06
   6.23999977       3.95916641E-06
   6.36000013       4.10689336E-06
   6.48000002       4.25836106E-06
   6.59999990       4.41360771E-06
   6.71999979       4.57266287E-06
   6.84000015       4.73554383E-06
   6.96000004       4.90225693E-06
   7.07999992       5.07279674E-06
   7.19999981       5.24714414E-06
   7.32000017       5.42527141E-06
   7.44000006       5.60714079E-06
   7.55999994       5.79270954E-06
   7.67999983       5.98192855E-06
   7.80000019       6.17474961E-06
   7.92000008       6.37112134E-06
   8.03999996       6.57099372E-06
   8.15999985       6.77431126E-06
   8.27999973       6.98101076E-06
   8.39999962       7.19101899E-06
   8.52000046       7.40424639E-06
   8.64000034       7.62058198E-06
   8.76000023       7.83989071E-06
   8.88000011       8.06201388E-06
   9.00000000       8.28676912E-06
   9.11999989       8.51395271E-06
   9.23999977       8.74334546E-06
   9.35999966       8.97472182E-06
   9.47999954       9.20784987E-06
   9.60000038       9.44250496E-06
   9.72000027       9.67846427E-06
   9.84000015       9.91551406E-06
   9.96000004       1.01534342E-05
   10.0799999       1.03919938E-05
   10.1999998       1.06309426E-05
   10.3199997       1.08699978E-05
   10.4399996       1.11088448E-05
   10.5600004       1.13471342E-05
   10.6800003       1.15844914E-05
   10.8000002       1.18205253E-05
   10.9200001       1.20548411E-05
   11.0400000       1.22870479E-05
   11.1599998       1.25167662E-05
   11.2799997       1.27436260E-05
   11.3999996       1.29672571E-05
   11.5200005       1.31872830E-05
   11.6400003       1.34032998E-05
   11.7600002       1.36148683E-05
   11.8800001       1.38215046E-05
   12.0000000       1.40226794E-05
   12.1199999       1.42178205E-05
   12.2399998       1.44063333E-05
   12.3599997       1.45876047E-05
   12.4799995       1.47610244E-05
   12.6000004       1.49259959E-05
   12.7200003       1.50819287E-05
   12.8400002       1.52282464E-05
   12.9600000       1.53643668E-05
   13.0799999       1.54896970E-05
   13.1999998       1.56036258E-05
   13.3199997       1.57055092E-05
   13.4399996       1.57946724E-05
   13.5600004       1.58704133E-05
   13.6800003       1.59319916E-05
   13.8000002       1.59786468E-05
   13.9200001       1.60095842E-05
   14.0400000       1.60239942E-05
   14.1599998       1.60210457E-05
   14.2799997       1.59998872E-05
   14.3999996       1.59596584E-05
   14.5200005       1.58994808E-05
   14.6400003       1.58184630E-05
   14.7600002       1.57157065E-05
   14.8800001       1.55902944E-05
   15.0000000       1.54412974E-05
   15.1199999       1.52677749E-05
   15.2399998       1.50687820E-05
   15.3599997       1.48433646E-05
   15.4799995       1.45905651E-05
   15.6000004       1.43094194E-05
   15.7200003       1.39989534E-05
   15.8400002       1.36581702E-05
   15.9600000       1.32860478E-05
   16.0799999       1.28815273E-05
   16.2000008       1.24435046E-05
   16.3199997       1.19708338E-05
   16.4400005       1.14623317E-05
   16.5599995       1.09167822E-05
   16.6800003       1.03329530E-05
   16.7999992       9.70960355E-06
   16.9200001       9.04550870E-06
   17.0400009       8.33945069E-06
   17.1599998       7.59022669E-06
   17.2800007       6.79664390E-06
   17.3999996       5.95751044E-06
   17.5200005       5.07162395E-06
   17.6399994       4.13776161E-06
   17.7600002       3.15467196E-06
   17.8799992       2.12106283E-06
   18.0000000       1.03560239E-06
   18.1200008      -1.03086919E-07
   18.2399998      -1.29642376E-06
   18.3600006      -2.54586394E-06
   18.4799995      -3.85288467E-06
   18.6000004      -5.21896845E-06
   18.7199993      -6.64559138E-06
   18.8400002      -8.13420138E-06
   18.9599991      -9.68622044E-06
   19.0799999      -1.13030401E-05
   19.2000008      -1.29860427E-05
   19.3199997      -1.47366218E-05
   19.4400005      -1.65561960E-05
   19.5599995      -1.84462297E-05
   19.6800003      -2.04082280E-05
   19.7999992      -2.24437390E-05
   19.9200001      -2.45543379E-05
   20.0400009      -2.67416017E-05
   20.1599998      -2.90071148E-05
   20.2800007      -3.13524433E-05
   20.3999996      -3.37791535E-05
   20.5200005      -3.62888022E-05
   20.6399994      -3.88829430E-05
   20.7600002      -4.15631366E-05
   20.8799992      -4.43309509E-05
   21.0000000      -4.71879393E-05
   21.1200008      -5.01356590E-05
   21.2399998      -5.31756450E-05
   21.3600006      -5.63094181E-05
   21.4799995      -5.95385063E-05
   21.6000004      -6.28644193E-05
   21.7199993      -6.62886741E-05
   21.8400002      -6.98128060E-05
   21.9599991      -7.34383430E-05
   22.0799999      -7.71668056E-05
   22.2000008      -8.09997073E-05
   22.3199997      -8.49385324E-05
   22.4400005      -8.89846779E-05
   22.5599995      -9.31395116E-05
   22.6800003      -9.74043287E-05
   22.7999992      -1.01780373E-04
   22.9200001      -1.06268875E-04
   23.0400009      -1.10871042E-04
   23.1599998      -1.15588096E-04
   23.2800007      -1.20421253E-04
   23.3999996      -1.25371691E-04
   23.5200005      -1.30440545E-04
   23.6399994      -1.35628870E-04
   23.7600002      -1.40937642E-04
   23.8799992      -1.46367762E-04
   24.0000000      -1.51920030E-04
   24.1200008      -1.57595190E-04
   24.2399998      -1.63393939E-04
   24.3600006      -1.69316903E-04
   24.4799995      -1.75364650E-04
   24.6000004      -1.81537689E-04
   24.7199993      -1.87836427E-04
   24.8400002      -1.94261229E-04
   24.9599991      -2.00812399E-04
   25.0799999      -2.07490084E-04
   25.2000008      -2.14294341E-04
   25.3199997      -2.21225171E-04
   25.4400005      -2.28282370E-04
   25.5599995      -2.35465661E-04
   25.6800003      -2.42774608E-04
   25.7999992      -2.50208686E-04
   25.9200001      -2.57767242E-04
   26.0400009      -2.65449518E-04
   26.1599998      -2.73254671E-04
   26.2800007      -2.81181652E-04
   26.3999996      -2.89229269E-04
   26.5200005      -2.97396298E-04
   26.6399994      -3.05681286E-04
   26.7600002      -3.14082659E-04
   26.8799992      -3.22598702E-04
   27.0000000      -3.31227522E-04
   27.1200008      -3.39967111E-04
   27.2399998      -3.48815258E-04
   27.3600006      -3.57769546E-04
   27.4799995      -3.66827473E-04
   27.6000004      -3.75986303E-04
   27.7199993      -3.85243213E-04
   27.8400002      -3.94595176E-04
   27.9599991      -4.04039049E-04
   28.0799999      -4.13571455E-04
   28.2000008      -4.23188932E-04
   28.3199997      -4.32887755E-04
   28.4400005      -4.42663993E-04
   28.5599995      -4.52513690E-04
   28.6800003      -4.62432567E-04
   28.7999992      -4.72416199E-04
   28.9200001      -4.82459931E-04
   29.0400009      -4.92558873E-04
   29.1599998      -5.02708019E-04
   29.2800007      -5.12902101E-04
   29.3999996      -5.23135706E-04
   29.5200005      -5.33403130E-04
   29.6399994      -5.43698785E-04
   29.7600002      -5.54016733E-04
   29.8799992      -5.64350863E-04
   30.0000000      -5.74695121E-04
   30.1200008      -5.85043046E-04
   30.2399998      -5.95388061E-04
   30.3600006      -6.05723471E-04
   30.4799995      -6.16042293E-04
   30.6000004      -6.26337423E-04
   30.7199993      -6.36601530E-04
   30.8400002      -6.46827335E-04
   30.9599991      -6.57007215E-04
   31.0799999      -6.67133543E-04
   31.2000008      -6.77198637E-04
   31.3199997      -6.87194522E-04
   31.4400005      -6.97113283E-04
   31.5599995      -7.06946710E-04
   31.6800003      -7.16686540E-04
   31.7999992      -7.26324448E-04
   31.9200001      -7.35851994E-04
   32.0400009      -7.45260681E-04
   32.1599998      -7.54541950E-04
   32.2799988      -7.63687189E-04
   32.4000015      -7.72687723E-04
   32.5200005      -7.81534705E-04
   32.6399994      -7.90219347E-04
   32.7599983      -7.98732799E-04
   32.8800011      -8.07066099E-04
   33.0000000      -8.15210456E-04
   33.1199989      -8.23156908E-04
   33.2400017      -8.30896606E-04
   33.3600006      -8.38420761E-04
   33.4799995      -8.45720759E-04
   33.5999985      -8.52787751E-04
   33.7200012      -8.59613123E-04
   33.8400002      -8.66188202E-04
   33.9599991      -8.72504257E-04
   34.0800018      -8.78553139E-04
   34.2000008      -8.84326233E-04
   34.3199997      -8.89815681E-04
   34.4399986      -8.95013392E-04
   34.5600014      -8.99911625E-04
   34.6800003      -9.04502696E-04
   34.7999992      -9.08778980E-04
   34.9199982      -9.12733143E-04
   35.0400009      -9.16357967E-04
   35.1599998      -9.19646583E-04
   35.2799988      -9.22592124E-04
   35.4000015      -9.25188302E-04
   35.5200005      -9.27428715E-04
   35.6399994      -9.29307542E-04
   35.7599983      -9.30819078E-04
   35.8800011      -9.31957911E-04
   36.0000000      -9.32718802E-04
   36.1199989      -9.33097093E-04
   36.2400017      -9.33088188E-04
   36.3600006      -9.32688068E-04
   36.4799995      -9.31893068E-04
   36.5999985      -9.30699753E-04
   36.7200012      -9.29105212E-04
   36.8400002      -9.27106710E-04
   36.9599991      -9.24702093E-04
   37.0800018      -9.21889383E-04
   37.2000008      -9.18667240E-04
   37.3199997      -9.15034441E-04
   37.4399986      -9.10990231E-04
   37.5600014      -9.06534493E-04
   37.6800003      -9.01667285E-04
   37.7999992      -8.96389247E-04
   37.9199982      -8.90701427E-04
   38.0400009      -8.84605281E-04
   38.1599998      -8.78102786E-04
   38.2799988      -8.71196447E-04
   38.4000015      -8.63889058E-04
   38.5200005      -8.56184051E-04
   38.6399994      -8.48085212E-04
   38.7599983      -8.39596905E-04
   38.8800011      -8.30723904E-04
   39.0000000      -8.21471331E-04
   39.1199989      -8.11844890E-04
   39.2400017      -8.01850634E-04
   39.3600006      -7.91495026E-04
   39.4799995      -7.80784932E-04
   39.5999985      -7.69727863E-04
   39.7200012      -7.58331618E-04
   39.8400002      -7.46604521E-04
   39.9599991      -7.34555244E-04
   40.0800018      -7.22192810E-04
   40.2000008      -7.09526765E-04
   40.3199997      -6.96566887E-04
   40.4399986      -6.83323364E-04
   40.5600014      -6.69806788E-04
   40.6800003      -6.56027929E-04
   40.7999992      -6.41998136E-04
   40.9199982      -6.27729110E-04
   41.0400009      -6.13232667E-04
   41.1599998      -5.98521263E-04
   41.2799988      -5.83607354E-04
   41.4000015      -5.68503863E-04
   41.5200005      -5.53223654E-04
   41.6399994      -5.37780055E-04
   41.7599983      -5.22186339E-04
   41.8800011      -5.06456301E-04
   42.0000000      -4.90603736E-04
   42.1199989      -4.74642729E-04
   42.2400017      -4.58587398E-04
   42.3600006      -4.42452118E-04
   42.4799995      -4.26251267E-04
   42.5999985      -4.09999164E-04
   42.7200012      -3.93710390E-04
   42.8400002      -3.77399498E-04
   42.9599991      -3.61081242E-04
   43.0800018      -3.44770233E-04
   43.2000008      -3.28481139E-04
   43.3199997      -3.12228483E-04
   43.4399986      -2.96026672E-04
   43.5600014      -2.79889849E-04
   43.6800003      -2.63832102E-04
   43.7999992      -2.47867429E-04
   43.9199982      -2.32009625E-04
   44.0400009      -2.16272529E-04
   44.1599998      -2.00669703E-04
   44.2799988      -1.85214565E-04
   44.4000015      -1.69920299E-04
   44.5200005      -1.54799709E-04
   44.6399994      -1.39865384E-04
   44.7599983      -1.25129576E-04
   44.8800011      -1.10604218E-04
   45.0000000      -9.63009661E-05
   45.1199989      -8.22311995E-05
   45.2400017      -6.84059705E-05
   45.3600006      -5.48359567E-05
   45.4799995      -4.15313953E-05
   45.5999985      -2.85020560E-05
   45.7200012      -1.57572213E-05
   45.8400002      -3.30570356E-06
   45.9599991       8.84411565E-06
   46.0800018       2.06842760E-05
   46.2000008       3.22072228E-05
   46.3199997       4.34058566E-05
   46.4399986       5.42735288E-05
   46.5600014       6.48040805E-05
   46.6800003       7.49918763E-05
   46.7999992       8.48317504E-05
   46.9199982       9.43190753E-05
   47.0400009       1.03449696E-04
   47.1599998       1.12219939E-04
   47.2799988       1.20626624E-04
   47.4000015       1.28667074E-04
   47.5200005       1.36339193E-04
   47.6399994       1.43641402E-04
   47.7599983       1.50572741E-04
   47.8800011       1.57132774E-04
   48.0000000       1.63321543E-04
   48.1199989       1.69139617E-04
   48.2400017       1.74588000E-04
   48.3600006       1.79668146E-04
   48.4799995       1.84381963E-04
   48.5999985       1.88731836E-04
   48.7200012       1.92720632E-04
   48.8400002       1.96351612E-04
   48.9599991       1.99628557E-04
   49.0800018       2.02555631E-04
   49.2000008       2.05137403E-04
   49.3199997       2.07378893E-04
   49.4399986       2.09285499E-04
   49.5600014       2.10863043E-04
   49.6800003       2.12117709E-04
   49.7999992       2.13056075E-04
   49.9199982       2.13685009E-04
   50.0400009       2.14011641E-04
   50.1599998       2.14043437E-04
   50.2799988       2.13788080E-04
   50.4000015       2.13253530E-04
   50.5200005       2.12448067E-04
   50.6399994       2.11380277E-04
   50.7599983       2.10058977E-04
   50.8800011       2.08493220E-04
   51.0000000       2.06692246E-04
   51.1199989       2.04665354E-04
   51.2400017       2.02421987E-04
   51.3600006       1.99971546E-04
   51.4799995       1.97323621E-04
   51.5999985       1.94487788E-04
   51.7200012       1.91473795E-04
   51.8400002       1.88291509E-04
   51.9599991       1.84950826E-04
   52.0800018       1.81461772E-04
   52.2000008       1.77834358E-04
   52.3199997       1.74078508E-04
   52.4399986       1.70204163E-04
   52.5600014       1.66221173E-04
   52.6800003       1.62139273E-04
   52.7999992       1.57968170E-04
   52.9199982       1.53717454E-04
   53.0400009       1.49396583E-04
   53.1599998       1.45014943E-04
   53.2799988       1.40581702E-04
   53.4000015       1.36105868E-04
   53.5200005       1.31596302E-04
   53.6399994       1.27061619E-04
   53.7599983       1.22510246E-04
   53.8800011       1.17950469E-04
   54.0000000       1.13390342E-04
   54.1199989       1.08837812E-04
   54.2400017       1.04300634E-04
   54.3600006       9.97863535E-05
   54.4799995       9.53022609E-05
   54.5999985       9.08553266E-05
   54.7200012       8.64522372E-05
   54.8400002       8.20993009E-05
   54.9599991       7.78025642E-05
   55.0800018       7.35677677E-05
   55.2000008       6.94004484E-05
   55.3199997       6.53059251E-05
   55.4399986       6.12892982E-05
   55.5600014       5.73554025E-05
   55.6800003       5.35087602E-05
   55.7999992       4.97535657E-05
   55.9199982       4.60936208E-05
   56.0400009       4.25324215E-05
   56.1599998       3.90731511E-05
   56.2799988       3.57187600E-05
   56.4000015       3.24720058E-05
   56.5200005       2.93354315E-05
   56.6399994       2.63113361E-05
   56.7599983       2.34017443E-05
   56.8800011       2.06083569E-05
   57.0000000       1.79325343E-05
   57.1199989       1.53753226E-05
   57.2400017       1.29374821E-05
   57.3600006       1.06195321E-05
   57.4799995       8.42178724E-06
   57.5999985       6.34436401E-06
   57.7200012       4.38717461E-06
   57.8400002       2.54990709E-06
   57.9599991       8.32011722E-07
   58.0800018      -7.67303675E-07
   58.2000008      -2.24904352E-06
   58.3199997      -3.61439652E-06
   58.4399986      -4.86470344E-06
   58.5600014      -6.00143039E-06
   58.6800003      -7.02616535E-06
   58.7999992      -7.94063089E-06
   58.9199982      -8.74671423E-06
   59.0400009      -9.44648764E-06
   59.1599998      -1.00422258E-05
   59.2799988      -1.05363924E-05
   59.4000015      -1.09316070E-05
   59.5200005      -1.12305925E-05
   59.6399994      -1.14361283E-05
   59.7599983      -1.15510165E-05
   59.8800011      -1.15780722E-05
   60.0000000      -1.15201528E-05
   60.1199989      -1.13801889E-05
   60.2400017      -1.11612189E-05
   60.3600006      -1.08664080E-05
   60.4799995      -1.04990104E-05
   60.5999985      -1.00623265E-05
   60.7200012      -9.55964151E-06
   60.8400002      -8.99418046E-06
   60.9599991      -8.36910203E-06
   61.0800018      -7.68752761E-06
   61.2000008      -6.95259587E-06
   61.3199997      -6.16750413E-06
   61.4399986      -5.33553248E-06
   61.5600014      -4.46001468E-06
   61.6800003      -3.54428425E-06
   61.7999992      -2.59161106E-06
   61.9199982      -1.60515253E-06
   62.0400009      -5.87948421E-07
   62.1599998       4.57054966E-07
   62.2799988       1.52695702E-06
   62.4000015       2.61886476E-06
   62.5200005       3.72988279E-06
   62.6399994       4.85714145E-06
   62.7599983       5.99784153E-06
   62.8800011       7.14930184E-06
   63.0000000       8.30897716E-06
   63.1199989       9.47444823E-06
   63.2400017       1.06433845E-05
   63.3600006       1.18134931E-05
   63.4799995       1.29825021E-05
   63.5999985       1.41481496E-05
   63.7200012       1.53082183E-05
   63.8400002       1.64605772E-05
   63.9599991       1.76032117E-05
   64.0800018       1.87342557E-05
   64.1999969       1.98519683E-05
   64.3199997       2.09547288E-05
   64.4400024       2.20410093E-05
   64.5599976       2.31093672E-05
   64.6800003       2.41584221E-05
   64.8000031       2.51868842E-05
   64.9199982       2.61935402E-05
   65.0400009       2.71772660E-05
   65.1600037       2.81370176E-05
   65.2799988       2.90718308E-05
   65.4000015       2.99808107E-05
   65.5199966       3.08631352E-05
   65.6399994       3.17180675E-05
   65.7600021       3.25449400E-05
   65.8799973       3.33431854E-05
   66.0000000       3.41122977E-05
   66.1200027       3.48518442E-05
   66.2399979       3.55614611E-05
   66.3600006       3.62408355E-05
   66.4800034       3.68897345E-05
   66.5999985       3.75080162E-05
   66.7200012       3.80956189E-05
   66.8399963       3.86525644E-05
   66.9599991       3.91789508E-05
   67.0800018       3.96749201E-05
   67.1999969       4.01406433E-05
   67.3199997       4.05763203E-05
   67.4400024       4.09821805E-05
   67.5599976       4.13584858E-05
   67.6800003       4.17055489E-05
   67.8000031       4.20237375E-05
   67.9199982       4.23134443E-05
   68.0400009       4.25751277E-05
   68.1600037       4.28092535E-05
   68.2799988       4.30163309E-05
   68.4000015       4.31969092E-05
   68.5199966       4.33515852E-05
   68.6399994       4.34810026E-05
   68.7600021       4.35858456E-05
   68.8799973       4.36668306E-05
   69.0000000       4.37246599E-05
   69.1200027       4.37600393E-05
   69.2399979       4.37736453E-05
   69.3600006       4.37661547E-05
   69.4800034       4.37382405E-05
   69.5999985       4.36906230E-05
   69.7200012       4.36240662E-05
   69.8399963       4.35393522E-05
   69.9599991       4.34372778E-05
   70.0800018       4.33186433E-05
   70.1999969       4.31842163E-05
   70.3199997       4.30347245E-05
   70.4400024       4.28708918E-05
   70.5599976       4.26934421E-05
   70.6800003       4.25030994E-05
   70.8000031       4.23006240E-05
   70.9199982       4.20867764E-05
   71.0400009       4.18622949E-05
   71.1600037       4.16278890E-05
   71.2799988       4.13842281E-05
   71.4000015       4.11319525E-05
   71.5199966       4.08716842E-05
   71.6399994       4.06040708E-05
   71.7600021       4.03297818E-05
   71.8799973       4.00495046E-05
   72.0000000       3.97639269E-05
   72.1200027       3.94736999E-05
   72.2399979       3.91794238E-05
   72.3600006       3.88816334E-05
   72.4800034       3.85808344E-05
   72.5999985       3.82774997E-05
   72.7200012       3.79721278E-05