  -30.0000000       0.00000000    
  -29.8799992       0.00000000    
  -29.7600002       0.00000000    
  -29.6399994       0.00000000    
  -29.5200005       0.00000000    
  -29.3999996       0.00000000    
  -29.2800007       1.40129846E-45
  -29.1599998       7.00649232E-45
  -29.0400009       3.92363570E-44
  -28.9200001       4.76441478E-44
  -28.7999992      -5.60519386E-44
  -28.6800003      -3.82554481E-43
  -28.5599995      -1.69276854E-42
  -28.4400005      -3.17113842E-42
  -28.3199997      -2.45227231E-43
  -28.2000008       2.42704894E-41
  -28.0799999       1.08054125E-40
  -27.9599991       2.95190528E-40
  -27.8400002       5.42598180E-40
  -27.7199993       4.96827568E-40
  -27.6000004      -7.66735869E-40
  -27.4799995      -4.63621278E-39
  -27.3600006      -1.17781490E-38
  -27.2399998      -1.94279817E-38
  -27.1200008      -1.81111507E-38
  -27.0000000       8.77376650E-39
  -26.8799992       7.72435566E-38
  -26.7600002       1.83539707E-37
  -26.6399994       2.78441009E-37
  -26.5200005       2.53319338E-37
  -26.3999996      -3.38367168E-38
  -26.2800007      -6.70816059E-37
  -26.1599998      -1.55368135E-36
  -26.0400009      -2.26581164E-36
  -25.9200001      -2.08792915E-36
  -25.7999992      -2.49771317E-37
  -25.6800003       3.55849059E-36
  -25.5599995       8.57320589E-36
  -25.4400005       1.25901931E-35
  -25.3199997       1.22698163E-35
  -25.2000008       4.38574259E-36
  -25.0799999      -1.21357150E-35
  -24.9599991      -3.41173173E-35
  -24.8400002      -5.31675177E-35
  -24.7199993      -5.70589607E-35
  -24.6000004      -3.39934054E-35
  -24.4799995       2.09883483E-35
  -24.3600006       9.96879706E-35
  -24.2399998       1.77767726E-34
  -24.1200008       2.18155037E-34
  -24.0000000       1.82099010E-34
  -23.8799992       4.60314950E-35
  -23.7600002      -1.81055954E-34
  -23.6399994      -4.47274131E-34
  -23.5200005      -6.61720438E-34
  -23.3999996      -7.16064873E-34
  -23.2800007      -5.20905720E-34
  -23.1599998      -4.69137299E-35
  -23.0400009       6.43982825E-34
  -22.9200001       1.39195750E-33
  -22.7999992       1.96566055E-33
  -22.6800003       2.11942972E-33
  -22.5599995       1.66765216E-33
  -22.4400005       5.54791457E-34
  -22.3199997      -1.10104533E-33
  -22.2000008      -3.00602723E-33
  -22.0799999      -4.73290539E-33
  -21.9599991      -5.79834041E-33
  -21.8400002      -5.75816606E-33
  -21.7199993      -4.30259695E-33
  -21.6000004      -1.33807385E-33
  -21.4799995       2.95130797E-33
  -21.3600006       8.06650231E-33
  -21.2399998       1.31863430E-32
  -21.1200008       1.72035200E-32
  -21.0000000       1.88241829E-32
  -20.8799992       1.67530661E-32
  -20.7600002       9.97540302E-33
  -20.6399994      -1.87880676E-33
  -20.5200005      -1.81416012E-32
  -20.3999996      -3.67825524E-32
  -20.2800007      -5.42866742E-32
  -20.1599998      -6.58789763E-32
  -20.0400009      -6.62081853E-32
  -19.9200001      -5.05155355E-32
  -19.7999992      -1.61744099E-32
  -19.6800003       3.56873208E-32
  -19.5599995       9.89331428E-32
  -19.4400005       1.62068321E-31
  -19.3199997       2.09270932E-31
  -19.2000008       2.23029059E-31
  -19.0799999       1.88185361E-31
  -18.9599991       9.66861089E-32
  -18.8400002      -4.80946137E-32
  -18.7199993      -2.28761639E-31
  -18.6000004      -4.14158868E-31
  -18.4799995      -5.63065603E-31
  -18.3600006      -6.31146521E-31
  -18.2399998      -5.80186255E-31
  -18.1200008      -3.88024291E-31
  -18.0000000      -5.72733056E-32
  -17.8799992       3.79129372E-31
  -17.7600002       8.57258972E-31
  -17.6399994       1.28766548E-30
  -17.5200005       1.56741997E-30
  -17.3999996       1.59808288E-30
  -17.2800007       1.30750274E-30
  -17.1599998       6.71856194E-31
  -17.0400009      -2.66845634E-31
  -16.9200001      -1.39290260E-30
  -16.7999992      -2.52299399E-30
  -16.6800003      -3.42828169E-30
  -16.5599995      -3.87147202E-30
  -16.4400005      -3.65415603E-30
  -16.3199997      -2.66651508E-30
  -16.2000008      -9.29345552E-31
  -16.0799999       1.38203388E-30
  -15.9600000       3.94082469E-30
  -15.8400002       6.30381810E-30
  -15.7200003       7.97785634E-30
  -15.6000004       8.50989148E-30
  -15.4799995       7.58533602E-30
  -15.3599997       5.11344970E-30
  -15.2399998       1.27671608E-30
  -15.1199999      -3.47385288E-30
  -15.0000000      -8.48266591E-30
  -14.8800001      -1.29991304E-29
  -14.7600002      -1.63005685E-29
  -14.6400003      -1.77868237E-29
  -14.5200005      -1.70136922E-29
  -14.3999996      -1.36623890E-29
  -14.2799997      -7.48638987E-30
  -14.1599998       1.68398669E-30
  -14.0400000       1.37909750E-29
  -13.9200001       2.82095322E-29
  -13.8000002       4.32767713E-29
  -13.6800003       5.58819828E-29
  -13.5600004       6.14178939E-29
  -13.4399996       5.44104098E-29
  -13.3199997       3.00113240E-29
  -13.1999998      -1.37550127E-29
  -13.0799999      -7.34994330E-29
  -12.9600000      -1.38620565E-28
  -12.8400002      -1.91193554E-28
  -12.7200003      -2.08550913E-28
  -12.6000004      -1.68948605E-28
  -12.4799995      -5.97458075E-29
  -12.3599997       1.13675295E-28
  -12.2399998       3.21152646E-28
  -12.1199999       5.06690742E-28
  -12.0000000       5.96330504E-28
  -11.8800001       5.16500226E-28
  -11.7600002       2.21279480E-28
  -11.6400003      -2.77216599E-28
  -11.5200005      -8.85407099E-28
  -11.3999996      -1.42447932E-27
  -11.2799997      -1.65792851E-27
  -11.1599998      -1.35559622E-27
  -11.0400000      -3.87292234E-28
  -10.9200001       1.17663958E-27
  -10.8000002       2.99500826E-27
  -10.6800003       4.45952199E-27
  -10.5600004       4.80818117E-27
  -10.4399996       3.35688819E-27
  -10.3199997      -1.85993218E-28
  -10.1999998      -5.40827244E-27
  -10.0799999      -1.10125044E-26
  -9.96000004      -1.49006596E-26
  -9.84000015      -1.46209807E-26
  -9.72000027      -8.17626826E-27
  -9.60000038       4.94962224E-27
  -9.47999954       2.28448987E-26
  -9.35999966       4.07137122E-26
  -9.23999977       5.13314010E-26
  -9.11999989       4.66838670E-26
  -9.00000000       2.07393905E-26
  -8.88000011      -2.71628938E-26
  -8.76000023      -8.93185603E-26
  -8.64000034      -1.48420445E-25
  -8.52000046      -1.79444544E-25
  -8.39999962      -1.55504748E-25
  -8.27999973      -5.74133337E-26
  -8.15999985       1.14879459E-25
  -8.03999996       3.32440998E-25
  -7.92000008       5.33720313E-25
  -7.80000019       6.31671544E-25
  -7.67999983       5.34351500E-25
  -7.55999994       1.77905736E-25
  -7.44000006      -4.34424862E-25
  -7.32000017      -1.19914391E-24
  -7.19999981      -1.90078362E-24
  -7.07999992      -2.23691272E-24
  -6.96000004      -1.88890594E-24
  -6.84000015      -6.34768267E-25
  -6.71999979       1.51735226E-24
  -6.59999990       4.21474340E-24
  -6.48000002       6.71725947E-24
  -6.36000013       7.97791836E-24
  -6.23999977       6.87883712E-24
  -6.11999989       2.61271205E-24
  -6.00000000      -4.85852411E-24
  -5.88000011      -1.43985212E-23
  -5.76000023      -2.35205742E-23
  -5.63999987      -2.86198957E-23
  -5.51999998      -2.57328005E-23
  -5.40000010      -1.18087823E-23
  -5.28000021       1.37112655E-23
  -5.15999985       4.74298738E-23
  -5.03999996       8.12261864E-23
  -4.92000008       1.02810367E-22
  -4.80000019       9.80565275E-23
  -4.67999983       5.51618245E-23
  -4.55999994      -2.99457311E-23
  -4.44000006      -1.48254480E-22
  -4.32000017      -2.74295141E-22
  -4.19999981      -3.66915211E-22
  -4.07999992      -3.75977494E-22
  -3.96000004      -2.55554785E-22
  -3.83999991       1.77946589E-23
  -3.72000003       4.25540804E-22
  -3.59999990       8.92660056E-22
  -3.48000002       1.28554146E-21
  -3.35999990       1.42913222E-21
  -3.24000001       1.14684088E-21
  -3.11999989       3.20642474E-22
  -3.00000000      -1.03927570E-21
  -2.88000011      -2.73436971E-21
  -2.75999999      -4.35209366E-21
  -2.64000010      -5.30014968E-21
  -2.51999998      -4.91813845E-21
  -2.40000010      -2.66663117E-21
  -2.27999997       1.63205986E-21
  -2.16000009       7.55655420E-21
  -2.03999996       1.39327911E-20
  -1.91999996       1.88550134E-20
  -1.79999995       1.99581411E-20
  -1.67999995       1.49726541E-20
  -1.55999994       2.51592456E-21
  -1.44000006      -1.70242817E-20
  -1.32000005      -4.07561355E-20
  -1.20000005      -6.30074200E-20
  -1.08000004      -7.58118140E-20
 -0.959999979      -7.03629685E-20
 -0.839999974      -3.94300034E-20
 -0.720000029       1.95784167E-20
 -0.600000024       1.01564241E-19
 -0.479999989       1.91669341E-19
 -0.360000014       2.65289825E-19
 -0.239999995       2.91143096E-19
 -0.119999997       2.37856535E-19
  -1.11022302E-15   8.36763629E-20
  0.119999997      -1.72243974E-19
  0.239999995      -4.99703013E-19
  0.360000014      -8.32077212E-19
  0.479999989      -1.06953337E-18
  0.600000024      -1.09379271E-18
  0.720000029      -7.95285045E-19
  0.839999974      -1.10214204E-19
  0.959999979       9.39001783E-19
   1.08000004       2.21037652E-18
   1.20000005       3.42913224E-18
   1.32000005       4.20756586E-18
   1.44000006       4.10706176E-18
   1.55999994       2.74309986E-18
   1.67999995      -7.79403888E-20
   1.79999995      -4.21542738E-18
   1.91999996      -9.08276407E-18
   2.03999996      -1.36131843E-17
   2.16000009      -1.63469517E-17
   2.27999997      -1.56687166E-17
   2.40000010      -1.01941358E-17
   2.51999998       7.37118945E-19
   2.64000010       1.65527791E-17
   2.75999999       3.50577507E-17
   2.88000011       5.23207884E-17
   3.00000000       6.29883081E-17
   3.11999989       6.11231548E-17
   3.24000001       4.15655412E-17
   3.35999990       1.67174163E-18
   3.48000002      -5.68748610E-17
   3.59999990      -1.26632511E-16
   3.72000003      -1.93888277E-16
   3.83999991      -2.39583799E-16
   3.96000004      -2.42037071E-16
   4.07999992      -1.81497455E-16
   4.19999981      -4.61130858E-17
   4.32000017       1.61643877E-16
   4.44000006       4.19550639E-16
   4.55999994       6.82993741E-16
   4.67999983       8.86916817E-16
   4.80000019       9.53722147E-16
   4.92000008       8.07549565E-16
   5.03999996       3.93942821E-16
   5.15999985      -2.97807282E-16
   5.28000021      -1.21406281E-15
   5.40000010      -2.22369950E-15
   5.51999998      -3.11854725E-15
   5.63999987      -3.63261514E-15
   5.76000023      -3.48279492E-15
   5.88000011      -2.42966234E-15
   6.00000000      -3.51719976E-16
   6.11999989       2.67923043E-15
   6.23999977       6.33875370E-15
   6.36000013       1.00263087E-14
   6.48000002       1.28965128E-14
   6.59999990       1.39584237E-14
   6.71999979       1.22454859E-14
   6.84000015       7.04381503E-15
   6.96000004      -1.85103762E-15
   7.07999992      -1.38957280E-14
   7.19999981      -2.76386190E-14
   7.32000017      -4.07004651E-14
   7.44000006      -4.99509254E-14
   7.55999994      -5.19120744E-14
   7.67999983      -4.33818563E-14
   7.80000019      -2.22207845E-14
   7.92000008       1.18088260E-14
   8.03999996       5.63105030E-14
   8.15999985       1.05818586E-13
   8.27999973       1.51852286E-13
   8.39999962       1.83612647E-13
   8.52000046       1.89394006E-13
   8.64000034       1.58658676E-13
   8.76000023       8.45720995E-14
   8.88000011      -3.33625136E-14
   9.00000000      -1.87065275E-13
   9.11999989      -3.58609545E-13
   9.23999977      -5.20480414E-13
   9.35999966      -6.37794938E-13
   9.47999954      -6.72666512E-13
   9.60000038      -5.90535216E-13
   9.72000027      -3.67851989E-13
   9.84000015      -6.20034867E-17
   9.96000004       4.91539589E-13
   10.0799999       1.05571205E-12
   10.1999998       1.61152461E-12
   10.3199997       2.05419861E-12
   10.4399996       2.26709146E-12
   10.5600004       2.13939391E-12
   10.6800003       1.58794679E-12
   10.8000002       5.80384428E-13
   10.9200001      -8.44201445E-13
   11.0400000      -2.56147599E-12
   11.1599998      -4.35931152E-12
   11.2799997      -5.94999961E-12
   11.3999996      -6.99906582E-12
   11.5200005      -7.17010479E-12
   11.6400003      -6.18206528E-12
   11.7600002      -3.87235339E-12
   11.8800001      -2.56405357E-13
   12.0000000       4.42737253E-12
   12.1199999       9.69868630E-12
   12.2399998       1.48522236E-11
   12.3599997       1.90164256E-11
   12.4799995       2.12546803E-11
   12.6000004       2.07024797E-11
   12.7200003       1.67265021E-11
   12.8400002       9.08463235E-12
   12.9600000      -1.93916866E-12
   13.0799999      -1.54531613E-11
   13.1999998      -2.99550454E-11
   13.3199997      -4.34268489E-11
   13.4399996      -5.35345900E-11
   13.5600004      -5.79244187E-11
   13.6800003      -5.45895204E-11
   13.8000002      -4.22648513E-11
   13.9200001      -2.07929229E-11
   14.0400000       8.60403068E-12
   14.1599998       4.32094638E-11
   14.2799997       7.89082272E-11
   14.3999996       1.10523396E-10
   14.5200005       1.32393652E-10
   14.6400003       1.39152412E-10
   14.7600002       1.26629887E-10
   14.8800001       9.27628668E-11
   15.0000000       3.83710598E-11
   15.1199999      -3.23509344E-11
   15.2399998      -1.11765104E-10
   15.3599997      -1.89248686E-10
   15.4799995      -2.52223881E-10
   15.6000004      -2.87724955E-10
   15.7200003      -2.84377216E-10
   15.8400002      -2.34573333E-10
   15.9600000      -1.36552492E-10
   16.0799999       3.96079090E-12
   16.2000008       1.72913697E-10
   16.3199997       3.48191753E-10
   16.4400005       5.01214514E-10
   16.5599995       5.99930994E-10
   16.6800003       6.13093187E-10
   16.7999992       5.15469223E-10
   16.9200001       2.93442354E-10
   17.0400009      -4.97471543E-11
   17.1599998      -4.89979557E-10
   17.2800007      -9.80347692E-10
   17.3999996      -1.45216761E-09
   17.5200005      -1.81949444E-09
   17.6399994      -1.98738048E-09
   17.7600002      -1.86365012E-09
   17.8799992      -1.37343736E-09
   18.0000000      -4.75169182E-10
   18.1200008       8.23825619E-10
   18.2399998       2.45428922E-09
   18.3600006       4.27698899E-09
   18.4799995       6.08197581E-09
   18.6000004       7.59709184E-09
   18.7199993       8.50696669E-09
   18.8400002       8.48271231E-09
   18.9599991       7.22128934E-09
   19.0799999       4.49205917E-09
   19.2000008       1.86633070E-10
   19.3199997      -5.63316593E-09
   19.4400005      -1.26953896E-08
   19.5599995      -2.04927026E-08
   19.6800003      -2.82782331E-08
   19.7999992      -3.50879965E-08
   19.9200001      -3.97937079E-08
   20.0400009      -4.11872314E-08
   20.1599998      -3.80948251E-08
   20.2800007      -2.95158422E-08
   20.3999996      -1.47767176E-08
   20.5200005       6.31225161E-09
   20.6399994       3.33127694E-08
   20.7600002       6.50443468E-08
   20.8799992       9.95179334E-08
   21.0000000       1.33934151E-07
   21.1200008       1.64760152E-07
   21.2399998       1.87894571E-07
   21.3600006       1.98923715E-07
   21.4799995       1.93465141E-07
   21.6000004       1.67585767E-07
   21.7199993       1.18274208E-07
   21.8400002       4.39382859E-08
   21.9599991      -5.51073072E-08
   22.0799999      -1.76203002E-07
   22.2000008      -3.13998072E-07
   22.3199997      -4.60236464E-07
   22.4400005      -6.03711385E-07
   22.5599995      -7.30416900E-07
   22.6800003      -8.23914490E-07
   22.7999992      -8.65919276E-07
   22.9200001      -8.37094888E-07
   23.0400009      -7.18031060E-07
   23.1599998      -4.90362936E-07
   23.2800007      -1.37975519E-07
   23.3999996       3.51771433E-07
   23.5200005       9.86872578E-07
   23.6399994       1.76963749E-06
   23.7600002       2.69585371E-06
   23.8799992       3.75422405E-06
   24.0000000       4.92612753E-06
   24.1200008       6.18574950E-06
   24.2399998       7.50059144E-06
   24.3600006       8.83236680E-06
   24.4799995       1.01382466E-05
   24.6000004       1.13724109E-05
   24.7199993       1.24878470E-05
   24.8400002       1.34382917E-05
   24.9599991       1.41802420E-05
   25.0799999       1.46749153E-05
   25.2000008       1.48900654E-05
   25.3199997       1.48015661E-05
   25.4400005       1.43946627E-05
   25.5599995       1.36648378E-05
   25.6800003       1.26182349E-05
   25.7999992       1.12716370E-05
   25.9200001       9.65197250E-06
   26.0400009       7.79540096E-06
   26.1599998       5.74601518E-06
   26.2800007       3.55422844E-06
   26.3999996       1.27492319E-06
   26.5200005      -1.03453715E-06
   26.6399994      -3.31635101E-06
   26.7600002      -5.51427729E-06
   26.8799992      -7.57550970E-06
   27.0000000      -9.45234387E-06
   27.1200008      -1.11035924E-05
   27.2399998      -1.24956914E-05
   27.3600006      -1.36034869E-05
   27.4799995      -1.44106762E-05
   27.6000004      -1.49099333E-05
   27.7199993      -1.51027270E-05
   27.8400002      -1.49988691E-05
   27.9599991      -1.46158309E-05
   28.0799999      -1.39778695E-05
   28.2000008      -1.31150173E-05
   28.3199997      -1.20619643E-05
   28.4400005      -1.08568856E-05
   28.5599995      -9.54023926E-06
   28.6800003      -8.15356543E-06
   28.7999992      -6.73831255E-06
   28.9200001      -5.33470302E-06
   29.0400009      -3.98067141E-06
   29.1599998      -2.71086810E-06
   29.2800007      -1.55576652E-06
   29.3999996      -5.40876954E-07
   29.5200005       3.13906810E-07
   29.6399994       9.94809170E-07
   29.7600002       1.49450193E-06
   29.8799992       1.81223800E-06
   30.0000000       1.95377402E-06
   30.1200008       1.93106916E-06
   30.2399998       1.76174956E-06
   30.3600006       1.46835407E-06
   30.4799995       1.07736571E-06
   30.6000004       6.18064860E-07
   30.7199993       1.21243119E-07
   30.8400002      -3.82170327E-07
   30.9599991      -8.62506852E-07
   31.0799999      -1.29271302E-06
   31.2000008      -1.64959147E-06
   31.3199997      -1.91485947E-06
   31.4400005      -2.07596418E-06
   31.5599995      -2.12660530E-06
   31.6800003      -2.06692812E-06
   31.7999992      -1.90337312E-06
   31.9200001      -1.64818732E-06
   32.0400009      -1.31861736E-06
   32.1599998      -9.35831167E-07
   32.2799988      -5.23629694E-07
   32.4000015      -1.07020220E-07
   32.5200005       2.89260811E-07
   32.6399994       6.42191424E-07
   32.7599983       9.31786246E-07
   32.8800011       1.14222087E-06
   33.0000000       1.26269038E-06
   33.1199989       1.28795455E-06
   33.2400017       1.21854066E-06
   33.3600006       1.06059576E-06
   33.4799995       8.25402878E-07
   33.5999985       5.28598662E-07
   33.7200012       1.89143591E-07
   33.8400002      -1.71884977E-07
   33.9599991      -5.32598904E-07
   34.0800018      -8.71621580E-07
   34.2000008      -1.16934405E-06
   34.3199997      -1.40903830E-06
   34.4399986      -1.57776333E-06
   34.5600014      -1.66701238E-06
   34.6800003      -1.67307110E-06
   34.7999992      -1.59707361E-06
   34.9199982      -1.44476257E-06
   35.0400009      -1.22598374E-06
   35.1599998      -9.53953872E-07
   35.2799988      -6.44360398E-07
   35.4000015      -3.14356242E-07
   35.5200005       1.84817655E-08
   35.6399994       3.37164494E-07
   35.7599983       6.26210010E-07
   35.8800011       8.72420458E-07
   36.0000000       1.06547634E-06
   36.1199989       1.19832498E-06
   36.2400017       1.26735438E-06
   36.3600006       1.27235785E-06
   36.4799995       1.21631138E-06
   36.5999985       1.10499218E-06
   36.7200012       9.46479872E-07
   36.8400002       7.50580909E-07
   36.9599991       5.28222472E-07
   37.0800018       2.90854217E-07
   37.2000008       4.98953447E-08
   37.3199997      -1.83747275E-07
   37.4399986      -4.00071173E-07
   37.5600014      -5.90271952E-07
   37.6800003      -7.46939861E-07
   37.7999992      -8.64167021E-07
   37.9199982      -9.37582229E-07
   38.0400009      -9.64329729E-07
   38.1599998      -9.43013788E-07
   38.2799988      -8.73627982E-07
   38.4000015      -7.57483463E-07
   38.5200005      -5.97147732E-07
   38.6399994      -3.96398491E-07
   38.7599983      -1.60189202E-07
   38.8800011       1.05381417E-07
   39.0000000       3.93109417E-07
   39.1199989       6.94751066E-07
   39.2400017       1.00113164E-06
   39.3600006       1.30231194E-06
   39.4799995       1.58782564E-06
   39.5999985       1.84699081E-06
   39.7200012       2.06929576E-06
   39.8400002       2.24484734E-06
   39.9599991       2.36485903E-06
   40.0800018       2.42215788E-06
   40.2000008       2.41167118E-06
   40.3199997       2.33085757E-06
   40.4399986       2.18004448E-06
   40.5600014       1.96263591E-06
   40.6800003       1.68516237E-06
   40.7999992       1.35715231E-06
   40.9199982       9.90814556E-07
   41.0400009       6.00541114E-07
   41.1599998       2.02244138E-07
   41.2799988      -1.87437351E-07
   41.4000015      -5.52018037E-07
   41.5200005      -8.76080549E-07
   41.6399994      -1.14616387E-06
   41.7599983      -1.35156517E-06
   41.8800011      -1.48499589E-06
   42.0000000      -1.54304314E-06
   42.1199989      -1.52639609E-06
   42.2400017      -1.43981242E-06
   42.3600006      -1.29182013E-06
   42.4799995      -1.09416590E-06
   42.5999985      -8.61041599E-07
   42.7200012      -6.08138066E-07
   42.8400002      -3.51589563E-07
   42.9599991      -1.06881480E-07
   43.0800018       1.12198862E-07
   43.2000008       2.94491230E-07
   43.3199997       4.32200039E-07
   43.4399986       5.21382276E-07
   43.5600014       5.62144464E-07
   43.6800003       5.58530360E-07
   43.7999992       5.18103661E-07
   43.9199982       4.51254380E-07
   44.0400009       3.70280816E-07
   44.1599998       2.88316954E-07
   44.2799988       2.18189854E-07
   44.4000015       1.71297998E-07
   44.5200005       1.56601175E-07
   44.6399994       1.79805028E-07
   44.7599983       2.42807630E-07
   44.8800011       3.43455042E-07
   45.0000000       4.75627985E-07
   45.1199989       6.29653982E-07
   45.2400017       7.93013726E-07
   45.3600006       9.51286324E-07
   45.4799995       1.08925735E-06
   45.5999985       1.19210392E-06
   45.7200012       1.24656174E-06
   45.8400002       1.24198482E-06
   45.9599991       1.17121510E-06
   46.0800018       1.03119851E-06
   46.2000008       8.23302400E-07
   46.3199997       5.53314408E-07
   46.4399986       2.31128482E-07
   46.5600014      -1.29854001E-07
   46.6800003      -5.13558291E-07
   46.7999992      -9.02240231E-07
   46.9199982      -1.27758483E-06
   47.0400009      -1.62181971E-06
   47.1599998      -1.91876620E-06
   47.2799988      -2.15475779E-06
   47.4000015      -2.31937020E-06
   47.5200005      -2.40592112E-06
   47.6399994      -2.41171483E-06
   47.7599983      -2.33803053E-06
   47.8800011      -2.18986702E-06
   48.0000000      -1.97546979E-06
   48.1199989      -1.70569035E-06
   48.2400017      -1.39322196E-06
   48.3600006      -1.05177583E-06
   48.4799995      -6.95251288E-07
   48.5999985      -3.36959403E-07
   48.7200012       1.10550200E-08
   48.8400002       3.38550961E-07
   48.9599991       6.37462620E-07
   49.0800018       9.02089937E-07
   49.2000008       1.12910789E-06
   49.3199997       1.31740751E-06
   49.4399986       1.46779212E-06
   49.5600014       1.58256375E-06
   49.6800003       1.66503969E-06
   49.7999992       1.71904207E-06
   49.9199982       1.74840750E-06
   50.0400009       1.75655168E-06
   50.1599998       1.74612990E-06
   50.2799988       1.71881243E-06
   50.4000015       1.67519329E-06
   50.5200005       1.61483467E-06
   50.6399994       1.53643748E-06
   50.7599983       1.43812076E-06
   50.8800011       1.31778233E-06
   51.0000000       1.17350407E-06
   51.1199989       1.00396630E-06
   51.2400017       8.08830180E-07
   51.3600006       5.89052263E-07
   51.4799995       3.47100581E-07
   51.5999985       8.70483134E-08
   51.7200012      -1.85466419E-07
   51.8400002      -4.63418388E-07
   51.9599991      -7.38699157E-07
   52.0800018      -1.00252760E-06
   52.2000008      -1.24593703E-06
   52.3199997      -1.46030243E-06
   52.4399986      -1.63786774E-06
   52.5600014      -1.77223069E-06
   52.6800003      -1.85874921E-06
   52.7999992      -1.89483546E-06
   52.9199982      -1.88011359E-06
   53.0400009      -1.81643156E-06
   53.1599998      -1.70772194E-06
   53.2799988      -1.55972759E-06
   53.4000015      -1.37961149E-06
   53.5200005      -1.17548427E-06
   53.6399994      -9.55885298E-07
   53.7599983      -7.29257920E-07
   53.8800011      -5.03459319E-07
   54.0000000      -2.85339240E-07
   54.1199989      -8.04170668E-08
   54.2400017       1.07322869E-07
   54.3600006       2.75508711E-07
   54.4799995       4.23331016E-07
   54.5999985       5.51376843E-07
   54.7200012       6.61365107E-07
   54.8400002       7.55810845E-07
   54.9599991       8.37644848E-07
   55.0800018       9.09821495E-07
   55.2000008       9.74943987E-07
   55.3199997       1.03493380E-06
   55.4399986       1.09076984E-06
   55.5600014       1.14231250E-06
   55.6800003       1.18822732E-06
   55.7999992       1.22601455E-06
   55.9199982       1.25214274E-06
   56.0400009       1.26228326E-06
   56.1599998       1.25163206E-06
   56.2799988       1.21530206E-06
   56.4000015       1.14876184E-06
   56.5200005       1.04829576E-06
   56.6399994       9.11452048E-07
   56.7599983       7.37446840E-07
   56.8800011       5.27491522E-07
   57.0000000       2.85012305E-07
   57.1199989       1.57360418E-08
   57.2400017      -2.72376923E-07
   57.3600006      -5.69362157E-07
   57.4799995      -8.63641617E-07
   57.5999985      -1.14256102E-06
   57.7200012      -1.39304950E-06
   57.8400002      -1.60236209E-06
   57.9599991      -1.75886157E-06
   58.0800018      -1.85278509E-06
   58.2000008      -1.87694275E-06
   58.3199997      -1.82729514E-06
   58.4399986      -1.70336511E-06
   58.5600014      -1.50844721E-06
   58.6800003      -1.24959297E-06
   58.7999992      -9.37365542E-07
   58.9199982      -5.85371595E-07
   59.0400009      -2.09594177E-07
   59.1599998       1.72436273E-07
   59.2799988       5.42584758E-07
   59.4000015       8.83112023E-07
   59.5200005       1.17767252E-06
   59.6399994       1.41225030E-06
   59.7599983       1.57597412E-06
   59.8800011       1.66176346E-06
   60.0000000       1.66676227E-06
   60.1199989       1.59253204E-06
   60.2400017       1.44499006E-06
   60.3600006       1.23408847E-06
   60.4799995       9.73250508E-07
   60.5999985       6.78589799E-07
   60.7200012       3.67954158E-07
   60.8400002       5.98473946E-08
   60.9599991      -2.27708711E-07
   61.0800018      -4.78303832E-07
   61.2000008      -6.78187178E-07
   61.3199997      -8.17164505E-07
   61.4399986      -8.89279704E-07
   61.5600014      -8.93227366E-07
   61.6800003      -8.32458909E-07
   61.7999992      -7.14962823E-07
   61.9199982      -5.52722838E-07
   62.0400009      -3.60880847E-07
   62.1599998      -1.56653570E-07
   62.2799988       4.19274393E-08
   62.4000015       2.17364658E-07
   62.5200005       3.54035734E-07
   62.6399994       4.39424753E-07
   62.7599983       4.65147423E-07
   62.8800011       4.27682636E-07
   63.0000000       3.28746182E-07
   63.1199989       1.75265782E-07
   63.2400017      -2.10521769E-08
   63.3600006      -2.44540928E-07
   63.4799995      -4.76721453E-07
   63.5999985      -6.97696521E-07
   63.7200012      -8.87683598E-07
   63.8400002      -1.02856620E-06
   63.9599991      -1.10533688E-06
   64.0800018      -1.10731492E-06
   64.1999969      -1.02903505E-06
   64.3199997      -8.70730105E-07
   64.4400024      -6.38368761E-07
   64.5599976      -3.43239890E-07
   64.6800003      -1.12048637E-09
   64.8000031       3.68902903E-07
   64.9199982       7.45858358E-07
   65.0400009       1.10843564E-06
   65.1600037       1.43652358E-06
   65.2799988       1.71260797E-06
   65.4000015       1.92291350E-06
   65.5199966       2.05819947E-06
   65.6399994       2.11415363E-06
   65.7600021       2.09136510E-06
   65.8799973       1.99489978E-06
   66.0000000       1.83353882E-06
   66.1200027       1.61876767E-06
   66.2399979       1.36362951E-06
   66.3600006       1.08155689E-06
   66.4800034       7.85301665E-07
   66.5999985       4.86059491E-07
   66.7200012       1.92863496E-07
   66.8399963      -8.77119675E-08
   66.9599991      -3.51531355E-07
   67.0800018      -5.96590951E-07
   67.1999969      -8.22484367E-07
   67.3199997      -1.02972240E-06
   67.4400024      -1.21900200E-06
   67.5599976      -1.39052088E-06
   67.6800003      -1.54342592E-06
   67.8000031      -1.67546170E-06
   67.9199982      -1.78286530E-06
   68.0400009      -1.86051977E-06
   68.1600037      -1.90234960E-06
   68.2799988      -1.90191622E-06
   68.4000015      -1.85314809E-06
   68.5199966      -1.75112723E-06
   68.6399994      -1.59284832E-06
   68.7600021      -1.37786958E-06
   68.8799973      -1.10878716E-06
   69.0000000      -7.91480943E-07
   69.1200027      -4.35102493E-07
   69.2399979      -5.17991836E-08
   69.3600006       3.43809774E-07
   69.4800034       7.35366598E-07
   69.5999985       1.10566475E-06
   69.7200012       1.43762986E-06
   69.8399963       1.71532224E-06
   69.9599991       1.92489074E-06
   70.0800018       2.05541642E-06
   70.1999969       2.09958580E-06
   70.3199997       2.05416040E-06
   70.4400024       1.92021002E-06
   70.5599976       1.70309897E-06
   70.6800003       1.41223234E-06
   70.8000031       1.06057416E-06
   70.9199982       6.63972457E-07
   71.0400009       2.40327154E-07
   71.1600037      -1.91348263E-07
   71.2799988      -6.11920370E-07
   71.4000015      -1.00312741E-06
   71.5199966      -1.34851359E-06
   71.6399994      -1.63425364E-06
   71.7600021      -1.84982002E-06
   71.8799973      -1.98845692E-06
   72.0000000      -2.04743014E-06
   72.1200027      -2.02804540E-06
   72.2399979      -1.93542746E-06
   72.3600006      -1.77808442E-06
   72.4800034      -1.56727924E-06
   72.5999985      -1.31625859E-06
   72.7200012      -1.03938646E-06