  -30.0000000       0.00000000    
  -29.8799992       0.00000000    
  -29.7600002       0.00000000    
  -29.6399994       0.00000000    
  -29.5200005       0.00000000    
  -29.3999996       0.00000000    
  -29.2800007       2.80259693E-45
  -29.1599998       1.72359711E-43
  -29.0400009       9.72501134E-43
  -28.9200001       1.90576591E-42
  -28.7999992      -3.26502542E-42
  -28.6800003      -3.74160703E-41
  -28.5599995      -1.35372438E-40
  -28.4400005      -2.64249858E-40
  -28.3199997      -1.37062404E-40
  -28.2000008       9.60056203E-40
  -28.0799999       3.89535329E-39
  -27.9599991       8.38030292E-39
  -27.8400002       1.06355064E-38
  -27.7199993       1.75941991E-39
  -27.6000004      -2.94597162E-38
  -27.4799995      -8.57378132E-38
  -27.3600006      -1.44202737E-37
  -27.2399998      -1.44868993E-37
  -27.1200008      -4.97789559E-39
  -27.0000000       3.25730371E-37
  -26.8799992       7.81270305E-37
  -26.7600002       1.12159059E-36
  -26.6399994       9.80387418E-37
  -26.5200005       6.55678706E-38
  -26.3999996      -1.54780316E-36
  -26.2800007      -3.22840763E-36
  -26.1599998      -3.95436723E-36
  -26.0400009      -2.94172609E-36
  -25.9200001      -4.89491087E-37
  -25.7999992       1.59698986E-36
  -25.6800003       7.41967493E-37
  -25.5599995      -4.25765826E-36
  -25.4400005      -1.05011659E-35
  -25.3199997      -9.62895608E-36
  -25.2000008       9.83412590E-36
  -25.0799999       5.53151252E-35
  -24.9599991       1.19908425E-34
  -24.8400002       1.74084273E-34
  -24.7199993       1.66576664E-34
  -24.6000004       4.03573613E-35
  -24.4799995      -2.35971239E-34
  -24.3600006      -6.29851179E-34
  -24.2399998      -1.01685909E-33
  -24.1200008      -1.18487020E-33
  -24.0000000      -8.87338349E-34
  -23.8799992       5.29725050E-35
  -23.7600002       1.61322035E-33
  -23.6399994       3.46247885E-33
  -23.5200005       4.94205559E-33
  -23.3999996       5.19111566E-33
  -23.2800007       3.43282444E-33
  -23.1599998      -6.34895060E-34
  -23.0400009      -6.47865630E-33
  -22.9200001      -1.25826576E-32
  -22.7999992      -1.66784942E-32
  -22.6800003      -1.64029451E-32
  -22.5599995      -1.02500609E-32
  -22.4400005       1.50885500E-33
  -22.3199997       1.63686031E-32
  -22.2000008       2.99583375E-32
  -22.0799999       3.73246493E-32
  -21.9599991       3.48138551E-32
  -21.8400002       2.18572830E-32
  -21.7199993       1.80562875E-33
  -21.6000004      -1.88299369E-32
  -21.4799995      -3.27856307E-32
  -21.3600006      -3.53754063E-32
  -21.2399998      -2.73652029E-32
  -21.1200008      -1.58434363E-32
  -21.0000000      -1.20660160E-32
  -20.8799992      -2.64106427E-32
  -20.7600002      -6.19821009E-32
  -20.6399994      -1.09481147E-31
  -20.5200005      -1.46121283E-31
  -20.3999996      -1.40374902E-31
  -20.2800007      -6.23474798E-32
  -20.1599998       1.02732858E-31
  -20.0400009       3.42178201E-31
  -19.9200001       6.09372228E-31
  -19.7999992       8.26741352E-31
  -19.6800003       8.99332360E-31
  -19.5599995       7.37307108E-31
  -19.4400005       2.83252173E-31
  -19.3199997      -4.61184567E-31
  -19.2000008      -1.41516589E-30
  -19.0799999      -2.41060507E-30
  -18.9599991      -3.20126157E-30
  -18.8400002      -3.49332057E-30
  -18.7199993      -2.99994565E-30
  -18.6000004      -1.51815274E-30
  -18.4799995       9.80862955E-31
  -18.3600006       4.26644527E-30
  -18.2399998       7.79612755E-30
  -18.1200008       1.07288908E-29
  -18.0000000       1.20321856E-29
  -17.8799992       1.06939856E-29
  -17.7600002       6.02214408E-30
  -17.6399994      -2.02272391E-30
  -17.5200005      -1.25489322E-29
  -17.3999996      -2.36184899E-29
  -17.2800007      -3.23980718E-29
  -17.1599998      -3.56390387E-29
  -17.0400009      -3.04719372E-29
  -16.9200001      -1.53951602E-29
  -16.7999992       8.77422612E-30
  -16.6800003       3.83022628E-29
  -16.5599995       6.66191506E-29
  -16.4400005       8.53125456E-29
  -16.3199997       8.60547930E-29
  -16.2000008       6.31838272E-29
  -16.0799999       1.63354384E-29
  -15.9600000      -4.77117276E-29
  -15.8400002      -1.14856179E-28
  -15.7200003      -1.65794353E-28
  -15.6000004      -1.80539911E-28
  -15.4799995      -1.44680732E-28
  -15.3599997      -5.59038903E-29
  -15.2399998       7.12980529E-29
  -15.1199999       2.04984187E-28
  -15.0000000       3.00904406E-28
  -14.8800001       3.13828720E-28
  -14.7600002       2.13489479E-28
  -14.6400003       1.28533283E-30
  -14.5200005      -2.77999778E-28
  -14.3999996      -5.35869881E-28
  -14.2799997      -6.56196688E-28
  -14.1599998      -5.28832244E-28
  -14.0400000      -9.57943411E-29
  -13.9200001       6.01940015E-28
  -13.8000002       1.39467507E-27
  -13.6800003       1.99052698E-27
  -13.5600004       2.03258506E-27
  -13.4399996       1.20853520E-27
  -13.3199997      -6.04296824E-28
  -13.1999998      -3.19664543E-27
  -13.0799999      -5.94264751E-27
  -12.9600000      -7.83206298E-27
  -12.8400002      -7.66346399E-27
  -12.7200003      -4.40443269E-27
  -12.6000004       2.33330746E-27
  -12.4799995       1.18226129E-26
  -12.3599997       2.19282655E-26
  -12.2399998       2.91877672E-26
  -12.1199999       2.94201823E-26
  -12.0000000       1.89022259E-26
  -11.8800001      -4.03521959E-27
  -11.7600002      -3.73613584E-26
  -11.6400003      -7.42225544E-26
  -11.5200005      -1.03007972E-25
  -11.3999996      -1.09169512E-25
  -11.2799997      -7.90093069E-26
  -11.1599998      -5.04617951E-27
  -11.0400000       1.08184841E-25
  -10.9200001       2.39763401E-25
  -10.8000002       3.51711983E-25
  -10.6800003       3.94081234E-25
  -10.5600004       3.16814305E-25
  -10.4399996       8.75097515E-26
  -10.3199997      -2.88311454E-25
  -10.1999998      -7.50362718E-25
  -10.0799999      -1.17778008E-24
  -9.96000004      -1.40177861E-24
  -9.84000015      -1.24136838E-24
  -9.72000027      -5.60914961E-25
  -9.60000038       6.59858432E-25
  -9.47999954       2.26169735E-24
  -9.35999966       3.87259786E-24
  -9.23999977       4.93218281E-24
  -9.11999989       4.79342060E-24
  -9.00000000       2.90445470E-24
  -8.88000011      -9.52845366E-25
  -8.76000023      -6.42185749E-24
  -8.64000034      -1.24092703E-23
  -8.52000046      -1.70966700E-23
  -8.39999962      -1.82069870E-23
  -8.27999973      -1.35600409E-23
  -8.15999985      -1.86961829E-24
  -8.03999996       1.63710253E-23
  -7.92000008       3.81734872E-23
  -7.80000019       5.78355834E-23
  -7.67999983       6.75385725E-23
  -7.55999994       5.89591674E-23
  -7.44000006       2.58492411E-23
  -7.32000017      -3.28129186E-23
  -7.19999981      -1.09882304E-22
  -7.07999992      -1.88410945E-22
  -6.96000004      -2.42504778E-22
  -6.84000015      -2.41608229E-22
  -6.71999979      -1.58461948E-22
  -6.59999990       2.01242740E-23
  -6.48000002       2.81892869E-22
  -6.36000013       5.80638532E-22
  -6.23999977       8.34811737E-22
  -6.11999989       9.37156860E-22
  -6.00000000       7.77592387E-22
  -5.88000011       2.78259893E-22
  -5.76000023      -5.64839100E-22
  -5.63999987      -1.64406226E-21
  -5.51999998      -2.72044557E-21
  -5.40000010      -3.43736923E-21
  -5.28000021      -3.37935511E-21
  -5.15999985      -2.17884321E-21
  -5.03999996       3.40359730E-22
  -4.92000008       4.01157273E-21
  -4.80000019       8.21068927E-21
  -4.67999983       1.18334285E-20
  -4.55999994       1.34162055E-20
  -4.44000006       1.14314341E-20
  -4.32000017       4.74721740E-21
  -4.19999981      -6.81573318E-21
  -4.07999992      -2.19602316E-20
  -3.96000004      -3.76039699E-20
  -3.83999991      -4.89875681E-20
  -3.72000003      -5.03658158E-20
  -3.59999990      -3.63450883E-20
  -3.48000002      -3.75746430E-21
  -3.35999990       4.62574973E-20
  -3.24000001       1.06513747E-19
  -3.11999989       1.63088080E-19
  -3.00000000       1.96393590E-19
  -2.88000011       1.84528071E-19
  -2.75999999       1.08949199E-19
  -2.64000010      -3.81604201E-20
  -2.51999998      -2.46293519E-19
  -2.40000010      -4.80995962E-19
  -2.27999997      -6.82875387E-19
  -2.16000009      -7.73734405E-19
  -2.03999996      -6.71344645E-19
  -1.91999996      -3.12479858E-19
  -1.79999995       3.18826272E-19
  -1.67999995       1.16381034E-18
  -1.55999994       2.07087996E-18
  -1.44000006       2.79666642E-18
  -1.32000005       3.03488679E-18
  -1.20000005       2.47747666E-18
  -1.08000004       9.05036610E-19
 -0.959999979      -1.70629979E-18
 -0.839999974      -5.08519290E-18
 -0.720000029      -8.60497711E-18
 -0.600000024      -1.12988165E-17
 -0.479999989      -1.19805076E-17
 -0.360000014      -9.48478957E-18
 -0.239999995      -3.01322438E-18
 -0.119999997       7.46473096E-18
  -1.11022302E-15   2.08441491E-17
  0.119999997       3.46698989E-17
  0.239999995       4.52047389E-17
  0.360000014       4.78893966E-17
  0.479999989       3.82434979E-17
  0.600000024       1.31556451E-17
  0.720000029      -2.76194051E-17
  0.839999974      -8.00759736E-17
  0.959999979      -1.35115003E-16
   1.08000004      -1.78715429E-16
   1.20000005      -1.93523100E-16
   1.32000005      -1.62055958E-16
   1.44000006      -7.13768460E-17
   1.55999994       8.13695980E-17
   1.67999995       2.83651270E-16
   1.79999995       5.03979680E-16
   1.91999996       6.91775249E-16
   2.03999996       7.82193687E-16
   2.16000009       7.06800608E-16
   2.27999997       4.09845653E-16
   2.40000010      -1.31660869E-16
   2.51999998      -8.87600426E-16
   2.64000010      -1.75921035E-15
   2.75999999      -2.57434764E-15
   2.88000011      -3.09930774E-15
   3.00000000      -3.07117778E-15
   3.11999989      -2.25122553E-15
   3.24000001      -4.94806208E-16
   3.35999990       2.17263782E-15
   3.48000002       5.48961545E-15
   3.59999990       8.92285344E-15
   3.72000003       1.16827290E-14
   3.83999991       1.28068476E-14
   3.96000004       1.13191740E-14
   4.07999992       6.45713544E-15
   4.19999981      -2.05992081E-15
   4.32000017      -1.37675143E-14
   4.44000006      -2.72614539E-14
   4.55999994      -4.01437272E-14
   4.67999983      -4.91758496E-14
   4.80000019      -5.06845474E-14
   4.92000008      -4.12243956E-14
   5.03999996      -1.84456688E-14
   5.15999985       1.79494481E-14
   5.28000021       6.53420054E-14
   5.40000010       1.17647984E-13
   5.51999998       1.65324026E-13
   5.63999987       1.96129341E-13
   5.76000023       1.96754017E-13
   5.88000011       1.55276657E-13
   6.00000000       6.42235966E-14
   6.11999989      -7.62055282E-14
   6.23999977      -2.55366691E-13
   6.36000013      -4.50593799E-13
   6.48000002      -6.27556221E-13
   6.59999990      -7.43143340E-13
   6.71999979      -7.51146432E-13
   6.84000015      -6.10527200E-13
   6.96000004      -2.95468402E-13
   7.07999992       1.94218814E-13
   7.19999981       8.24288825E-13
   7.32000017       1.52111906E-12
   7.44000006       2.17285087E-12
   7.55999994       2.63833400E-12
   7.67999983       2.76460972E-12
   7.80000019       2.41224250E-12
   7.92000008       1.48609131E-12
   8.03999996      -3.26505858E-14
   8.15999985      -2.05880018E-12
   8.27999973      -4.38640704E-12
   8.39999962      -6.68920344E-12
   8.52000046      -8.54326332E-12
   8.64000034      -9.47416624E-12
   8.76000023      -9.02713147E-12
   8.88000011      -6.85396661E-12
   9.00000000      -2.80593886E-12
   9.11999989       2.98233443E-12
   9.23999977       1.00352990E-11
   9.35999966       1.75224401E-11
   9.47999954       2.43019233E-11
   9.60000038       2.90295756E-11
   9.72000027       3.03314839E-11
   9.84000015       2.70270577E-11
   9.96000004       1.83774680E-11
   10.0799999       4.32388630E-12
   10.1999998      -1.43270083E-11
   10.3199997      -3.58140496E-11
   10.4399996      -5.74671352E-11
   10.5600004      -7.59118046E-11
   10.6800003      -8.74367315E-11
   10.8000002      -8.85019974E-11
   10.9200001      -7.63384009E-11
   11.0400000      -4.95618303E-11
   11.1599998      -8.70840379E-12
   11.2799997       4.34119164E-11
   11.3999996       1.01637844E-10
   11.5200005       1.58726116E-10
   11.6400003       2.05998024E-10
   11.7600002       2.34340936E-10
   11.8800001       2.35482134E-10
   12.0000000       2.03395023E-10
   12.1199999       1.35649172E-10
   12.2399998       3.44895605E-11
   12.3599997      -9.25696256E-11
   12.4799995      -2.32816280E-10
   12.6000004      -3.69189873E-10
   12.7200003      -4.81925055E-10
   12.8400002      -5.50890111E-10
   12.9600000      -5.58400770E-10
   13.0799999      -4.92181795E-10
   13.1999998      -3.48070933E-10
   13.3199997      -1.32031885E-10
   13.4399996       1.38932379E-10
   13.5600004       4.37278297E-10
   13.6800003       7.26996352E-10
   13.8000002       9.67224634E-10
   13.9200001       1.11714182E-09
   14.0400000       1.14165899E-09
   14.1599998       1.01724462E-09
   14.2799997       7.37094386E-10
   14.3999996       3.14831716E-10
   14.5200005      -2.14000748E-10
   14.6400003      -7.93206556E-10
   14.7600002      -1.35022182E-09
   14.8800001      -1.80331761E-09
   15.0000000      -2.07122275E-09
   15.1199999      -2.08428164E-09
   15.2399998      -1.79593374E-09
   15.3599997      -1.19309929E-09
   15.4799995      -3.03973263E-10
   15.6000004       7.98149435E-10
   15.7200003       1.99610861E-09
   15.8400002       3.13583159E-09
   15.9600000       4.03906597E-09
   16.0799999       4.52132376E-09
   16.2000008       4.41379777E-09
   16.3199997       3.58741126E-09
   16.4400005       1.97669170E-09
   16.5599995      -3.99136418E-10
   16.6800003      -3.42050699E-09
   16.7999992      -6.85980694E-09
   16.9200001      -1.03836655E-08
   17.0400009      -1.35666465E-08
   17.1599998      -1.59169069E-08
   17.2800007      -1.69134022E-08
   17.3999996      -1.60532352E-08
   17.5200005      -1.29066136E-08
   17.6399994      -7.17601134E-09
   17.7600002       1.24475763E-09
   17.8799992       1.22164678E-08
   18.0000000       2.53107260E-08
   18.1200008       3.97819662E-08
   18.2399998       5.45604379E-08
   18.3600006       6.82708645E-08
   18.4799995       7.92806318E-08
   18.6000004       8.57800018E-08
   18.7199993       8.58953015E-08
   18.8400002       7.78339810E-08
   18.9599991       6.00583618E-08
   19.0799999       3.14821413E-08
   19.2000008      -8.31848634E-09
   19.3199997      -5.88902971E-08
   19.4400005      -1.18698040E-07
   19.5599995      -1.84944355E-07
   19.6800003      -2.53430869E-07
   19.7999992      -3.18477845E-07
   19.9200001      -3.72918095E-07
   20.0400009      -4.08180341E-07
   20.1599998      -4.14473305E-07
   20.2800007      -3.81077371E-07
   20.3999996      -2.96746038E-07
   20.5200005      -1.50211676E-07
   20.6399994       6.92169948E-08
   20.7600002       3.70985134E-07
   20.8799992       7.62578395E-07
   21.0000000       1.24879887E-06
   21.1200008       1.83107227E-06
   21.2399998       2.50682751E-06
   21.3600006       3.26899703E-06
   21.4799995       4.10567691E-06
   21.6000004       4.99999169E-06
   21.7199993       5.93019013E-06
   21.8400002       6.86999829E-06
   21.9599991       7.78923823E-06
   22.0799999       8.65470338E-06
   22.2000008       9.43127725E-06
   22.3199997       1.00832558E-05
   22.4400005       1.05758154E-05
   22.5599995       1.08765753E-05
   22.6800003       1.09571765E-05
   22.7999992       1.07947826E-05
   22.9200001       1.03734565E-05
   23.0400009       9.68528366E-06
   23.1599998       8.73122463E-06
   23.2800007       7.52159804E-06
   23.3999996       6.07617312E-06
   23.5200005       4.42384180E-06
   23.6399994       2.60187244E-06
   23.7600002       6.54766495E-07
   23.8799992      -1.36723793E-06
   24.0000000      -3.40995643E-06
   24.1200008      -5.41725785E-06
   24.2399998      -7.33318575E-06
   24.3600006      -9.10410199E-06
   24.4799995      -1.06807493E-05
   24.6000004      -1.20201494E-05
   24.7199993      -1.30872249E-05
   24.8400002      -1.38561018E-05
   24.9599991      -1.43110083E-05
   25.0799999      -1.44467567E-05
   25.2000008      -1.42687759E-05
   25.3199997      -1.37927100E-05
   25.4400005      -1.30436119E-05
   25.5599995      -1.20547711E-05
   25.6800003      -1.08662416E-05
   25.7999992      -9.52314804E-06
   25.9200001      -8.07383640E-06
   26.0400009      -6.56797056E-06
   26.1599998      -5.05464459E-06
   26.2800007      -3.58059674E-06
   26.3999996      -2.18859759E-06
   26.5200005      -9.16061367E-07
   26.6399994       2.06062452E-07
   26.7600002       1.15409159E-06
   26.8799992       1.91208915E-06
   27.0000000       2.47201729E-06
   27.1200008       2.83357531E-06
   27.2399998       3.00375041E-06
   27.3600006       2.99611315E-06
   27.4799995       2.82990231E-06
   27.6000004       2.52894620E-06
   27.7199993       2.12047416E-06
   27.8400002       1.63386835E-06
   27.9599991       1.09941050E-06
   28.0799999       5.47068964E-07
   28.2000008       5.36944267E-09
   28.3199997      -4.99612042E-07
   28.4400005      -9.45105683E-07
   28.5599995      -1.31233139E-06
   28.6800003      -1.58699208E-06
   28.7999992      -1.75957359E-06
   28.9200001      -1.82544647E-06
   29.0400009      -1.78478206E-06
   29.1599998      -1.64229107E-06
   29.2800007      -1.40680834E-06
   29.3999996      -1.09074188E-06
   29.5200005      -7.09417691E-07
   29.6399994      -2.80345631E-07
   29.7600002       1.77561262E-07
   29.8799992       6.44784336E-07
   30.0000000       1.10198414E-06
   30.1200008       1.53074359E-06
   30.2399998       1.91424556E-06
   30.3600006       2.23786310E-06
   30.4799995       2.48964307E-06
   30.6000004       2.66067468E-06
   30.7199993       2.74533045E-06
   30.8400002       2.74138142E-06
   30.9599991       2.64998243E-06
   31.0799999       2.47553999E-06
   31.2000008       2.22546782E-06
   31.3199997       1.90984224E-06
   31.4400005       1.54097779E-06
   31.5599995       1.13293072E-06
   31.6800003       7.00957855E-07
   31.7999992       2.60942670E-07
   31.9200001      -1.71188802E-07
   32.0400009      -5.80045139E-07
   32.1599998      -9.51320771E-07
   32.2799988      -1.27230373E-06
   32.4000015      -1.53232509E-06
   32.5200005      -1.72313253E-06
   32.6399994      -1.83917837E-06
   32.7599983      -1.87780927E-06
   32.8800011      -1.83934912E-06
   33.0000000      -1.72707530E-06
   33.1199989      -1.54708005E-06
   33.2400017      -1.30802812E-06
   33.3600006      -1.02081140E-06
   33.4799995      -6.98114320E-07
   33.5999985      -3.53904483E-07
   33.7200012      -2.86635715E-09
   33.8400002       3.40200216E-07
   33.9599991       6.60993862E-07
   34.0800018       9.46312525E-07
   34.2000008       1.18461548E-06
   34.3199997       1.36652238E-06
   34.4399986       1.48522633E-06
   34.5600014       1.53680014E-06
   34.6800003       1.52038047E-06
   34.7999992       1.43821796E-06
   34.9199982       1.29558805E-06
   35.0400009       1.10056169E-06
   35.1599998       8.63642754E-07
   35.2799988       5.97287226E-07
   35.4000015       3.15321387E-07
   35.5200005       3.22870477E-08
   35.6399994      -2.37257410E-07
   35.7599983      -4.79445021E-07
   35.8800011      -6.81782751E-07
   36.0000000      -8.33772674E-07
   36.1199989      -9.27439658E-07
   36.2400017      -9.57737711E-07
   36.3600006      -9.22810443E-07
   36.4799995      -8.24093149E-07
   36.5999985      -6.66248297E-07
   36.7200012      -4.56937840E-07
   36.8400002      -2.06442991E-07
   36.9599991       7.28480813E-08
   37.0800018       3.67057993E-07
   37.2000008       6.61510796E-07
   37.3199997       9.41459689E-07
   37.4399986       1.19281503E-06
   37.5600014       1.40283817E-06
   37.6800003       1.56076590E-06
   37.7999992       1.65834103E-06
   37.9199982       1.69022428E-06
   38.0400009       1.65427321E-06
   38.1599998       1.55167822E-06
   38.2799988       1.38695111E-06
   38.4000015       1.16777062E-06
   38.5200005       9.04689443E-07
   38.6399994       6.10715176E-07
   38.7599983       3.00779675E-07
   38.8800011      -8.88646934E-09
   39.0000000      -3.01454151E-07
   39.1199989      -5.60248793E-07
   39.2400017      -7.69531312E-07
   39.3600006      -9.15279543E-07
   39.4799995      -9.85939892E-07
   39.5999985      -9.73116698E-07
   39.7200012      -8.72164549E-07
   39.8400002      -6.82648476E-07
   39.9599991      -4.08638414E-07
   40.0800018      -5.88075117E-08
   40.2000008       3.53688591E-07
   40.3199997       8.11567247E-07
   40.4399986       1.29401133E-06
   40.5600014       1.77748871E-06
   40.6800003       2.23677375E-06
   40.7999992       2.64612913E-06
   40.9199982       2.98059558E-06
   41.0400009       3.21732341E-06
   41.1599998       3.33687012E-06
   41.2799988       3.32438890E-06
   41.4000015       3.17063336E-06
   41.5200005       2.87270905E-06
   41.6399994       2.43451814E-06
   41.7599983       1.86686066E-06
   41.8800011       1.18717332E-06
   42.0000000       4.18916017E-07
   42.1199989      -4.09368738E-07
   42.2400017      -1.26527368E-06
   42.3600006      -2.11395491E-06
   42.4799995      -2.91969377E-06
   42.5999985      -3.64750395E-06
   42.7200012      -4.26470524E-06
   42.8400002      -4.74237504E-06
   42.9599991      -5.05661865E-06
   43.0800018      -5.18959041E-06
   43.2000008      -5.13024634E-06
   43.3199997      -4.87478792E-06
   43.4399986      -4.42680766E-06
   43.5600014      -3.79714447E-06
   43.6800003      -3.00347187E-06
   43.7999992      -2.06965410E-06
   43.9199982      -1.02490253E-06
   44.0400009       9.72218217E-08
   44.1599998       1.25992631E-06
   44.2799988       2.42438864E-06
   44.4000015       3.55100838E-06
   44.5200005       4.60067895E-06
   44.6399994       5.53605059E-06
   44.7599983       6.32275624E-06
   44.8800011       6.93057336E-06
   45.0000000       7.33448633E-06
   45.1199989       7.51561856E-06
   45.2400017       7.46200067E-06
   45.3600006       7.16914155E-06
   45.4799995       6.64036588E-06
   45.5999985       5.88689954E-06
   45.7200012       4.92767640E-06
   45.8400002       3.78886853E-06
   45.9599991       2.50313428E-06
   46.0800018       1.10861231E-06
   46.2000008      -3.52311218E-07
   46.3199997      -1.83441705E-06
   46.4399986      -3.29119052E-06
   46.5600014      -4.67642712E-06
   46.6800003      -5.94583480E-06
   46.7999992      -7.05857428E-06
   46.9199982      -7.97867506E-06
   47.0400009      -8.67627477E-06
   47.1599998      -9.12864289E-06
   47.2799988      -9.32095190E-06
   47.4000015      -9.24677988E-06
   47.5200005      -8.90833599E-06
   47.6399994      -8.31640136E-06
   47.7599983      -7.49000174E-06
   47.8800011      -6.45581849E-06
   48.0000000      -5.24736060E-06
   48.1199989      -3.90392051E-06
   48.2400017      -2.46932564E-06
   48.3600006      -9.90536478E-07
   48.4799995       4.83900578E-07
   48.5999985       1.90549144E-06
   48.7200012       3.22748724E-06
   48.8400002       4.40658050E-06
   48.9599991       5.40454357E-06
   49.0800018       6.18975264E-06
   49.2000008       6.73851673E-06
   49.3199997       7.03615115E-06
   49.4399986       7.07772506E-06
   49.5600014       6.86841668E-06
   49.6800003       6.42343639E-06
   49.7999992       5.76749017E-06
   49.9199982       4.93377229E-06
   50.0400009       3.96251608E-06
   50.1599998       2.89915783E-06
   50.2799988       1.79218898E-06
   50.4000015       6.90808122E-07
   50.5200005      -3.57500795E-07
   50.6399994      -1.30932847E-06
   50.7599983      -2.12749433E-06
   50.8800011      -2.78286143E-06
   51.0000000      -3.25569818E-06
   51.1199989      -3.53649716E-06
   51.2400017      -3.62619403E-06
   51.3600006      -3.53577639E-06
   51.4799995      -3.28530655E-06
   51.5999985      -2.90242247E-06
   51.7200012      -2.42042552E-06
   51.8400002      -1.87607645E-06
   51.9599991      -1.30725755E-06
   52.0800018      -7.50647075E-07
   52.2000008      -2.39564287E-07
   52.3199997       1.97883438E-07
   52.4399986       5.40239455E-07
   52.5600014       7.73645070E-07
   52.6800003       8.92253979E-07
   52.7999992       8.98111693E-07
   52.9199982       8.00535759E-07
   53.0400009       6.15064152E-07
   53.1599998       3.62066856E-07
   53.2799988       6.51325820E-08
   53.4000015      -2.50647787E-07
   53.5200005      -5.60381409E-07
   53.6399994      -8.40945916E-07
   53.7599983      -1.07234212E-06
   53.8800011      -1.23875338E-06
   54.0000000      -1.32926777E-06
   54.1199989      -1.33824324E-06
   54.2400017      -1.26532166E-06
   54.3600006      -1.11512236E-06
   54.4799995      -8.96659003E-07
   54.5999985      -6.22543212E-07
   54.7200012      -3.08038807E-07
   54.8400002       2.99623366E-08
   54.9599991       3.73975723E-07
   55.0800018       7.06911578E-07
   55.2000008       1.01296166E-06
   55.3199997       1.27834687E-06
   55.4399986       1.49189577E-06
   55.5600014       1.64543917E-06
   55.6800003       1.73401554E-06
   55.7999992       1.75589298E-06
   55.9199982       1.71242368E-06
   56.0400009       1.60775437E-06
   56.1599998       1.44841840E-06
   56.2799988       1.24284554E-06
   56.4000015       1.00082161E-06
   56.5200005       7.32933188E-07
   56.6399994       4.50029290E-07
   56.7599983       1.62728185E-07
   56.8800011      -1.19007787E-07
   57.0000000      -3.86212179E-07
   57.1199989      -6.31159935E-07
   57.2400017      -8.47516617E-07
   57.3600006      -1.03039440E-06
   57.4799995      -1.17632646E-06
   57.5999985      -1.28317424E-06
   57.7200012      -1.34998595E-06
   57.8400002      -1.37682821E-06
   57.9599991      -1.36460756E-06
   58.0800018      -1.31490390E-06
   58.2000008      -1.22982942E-06
   58.3199997      -1.11192298E-06
   58.4399986      -9.64087917E-07
   58.5600014      -7.89571573E-07
   58.6800003      -5.91982428E-07
   58.7999992      -3.75334167E-07
   58.9199982      -1.44102131E-07
   59.0400009       9.67238449E-08
   59.1599998       3.41610047E-07
   59.2799988       5.84488021E-07
   59.4000015       8.18818478E-07
   59.5200005       1.03771822E-06
   59.6399994       1.23415487E-06
   59.7599983       1.40120551E-06
   59.8800011       1.53236783E-06
   60.0000000       1.62190679E-06
   60.1199989       1.66521284E-06
   60.2400017       1.65914196E-06
   60.3600006       1.60231230E-06
   60.4799995       1.49532389E-06
   60.5999985       1.34088054E-06
   60.7200012       1.14379361E-06
   60.8400002       9.10857295E-07
   60.9599991       6.50595723E-07
   61.0800018       3.72888621E-07
   61.2000008       8.84950424E-08
   61.3199997      -1.91496966E-07
   61.4399986      -4.56263024E-07
   61.5600014      -6.95837059E-07
   61.6800003      -9.01669921E-07
   61.7999992      -1.06711161E-06
   61.9199982      -1.18778428E-06
   62.0400009      -1.26181601E-06
   62.1599998      -1.28991928E-06
   62.2799988      -1.27530313E-06
   62.4000015      -1.22342260E-06
   62.5200005      -1.14158229E-06
   62.6399994      -1.03841307E-06
   62.7599983      -9.23260984E-07
   62.8800011      -8.05522291E-07
   63.0000000      -6.93971344E-07
   63.1199989      -5.96122959E-07
   63.2400017      -5.17671992E-07
   63.3600006      -4.62047637E-07
   63.4799995      -4.30113829E-07
   63.5999985      -4.20038845E-07
   63.7200012      -4.27349335E-07
   63.8400002      -4.45172446E-07
   63.9599991      -4.64662577E-07
   64.0800018      -4.75595385E-07
   64.1999969      -4.67104314E-07
   64.3199997      -4.28524345E-07
   64.4400024      -3.50296631E-07
   64.5599976      -2.24880779E-07
   64.6800003      -4.76141579E-08
   64.8000031       1.82545548E-07
   64.9199982       4.62459155E-07
   65.0400009       7.84486303E-07
   65.1600037       1.13645683E-06
   65.2799988       1.50196865E-06
   65.4000015       1.86102716E-06
   65.5199966       2.19101548E-06
   65.6399994       2.46796048E-06
   65.7600021       2.66802772E-06
   65.8799973       2.76916126E-06
   66.0000000       2.75275511E-06
   66.1200027       2.60523666E-06
   66.2399979       2.31943591E-06
   66.3600006       1.89562479E-06
   66.4800034       1.34211928E-06
   66.5999985       6.75377350E-07
   66.7200012      -8.04528000E-08
   66.8399963      -8.94531752E-07
   66.9599991      -1.73083049E-06
   67.0800018      -2.55005284E-06
   67.1999969      -3.31185788E-06
   67.3199997      -3.97723443E-06
   67.4400024      -4.51086362E-06
   67.5599976      -4.88330261E-06
   67.6800003      -5.07282539E-06
   67.8000031      -5.06679407E-06
   67.9199982      -4.86244653E-06
   68.0400009      -4.46705508E-06
   68.1600037      -3.89743536E-06
   68.2799988      -3.17884951E-06
   68.4000015      -2.34338836E-06
   68.5199966      -1.42796591E-06
   68.6399994      -4.72069019E-07
   68.7600021       4.84554050E-07
   68.8799973       1.40410316E-06
   69.0000000       2.25267399E-06
   69.1200027       3.00181455E-06
   69.2399979       3.62960350E-06
   69.3600006       4.12120107E-06
   69.4800034       4.46888180E-06
   69.5999985       4.67159089E-06
   69.7200012       4.73411274E-06
   69.8399963       4.66596384E-06
   69.9599991       4.48013452E-06
   70.0800018       4.19181106E-06
   70.1999969       3.81718382E-06
   70.3199997       3.37244705E-06
   70.4400024       2.87303760E-06
   70.5599976       2.33315563E-06
   70.6800003       1.76555557E-06
   70.8000031       1.18157584E-06
   70.9199982       5.91356297E-07
   71.0400009       4.17219681E-09
   71.1600037      -5.71186092E-07
   71.2799988      -1.12605733E-06
   71.4000015      -1.65163374E-06
   71.5199966      -2.13880753E-06
   71.6399994      -2.57816237E-06
   71.7600021      -2.96011558E-06
   71.8799973      -3.27519638E-06
   72.0000000      -3.51443418E-06
   72.1200027      -3.66982340E-06
   72.2399979      -3.73482135E-06
   72.3600006      -3.70483872E-06
   72.4800034      -3.57768681E-06
   72.5999985      -3.35394134E-06
   72.7200012      -3.03720140E-06