  -30.0000000       0.00000000    
  -29.8799992       0.00000000    
  -29.7600002       0.00000000    
  -29.6399994       0.00000000    
  -29.5200005       0.00000000    
  -29.3999996       0.00000000    
  -29.2800007       0.00000000    
  -29.1599998      -1.82646346E-25
  -29.0400009      -2.56010095E-24
  -28.9200001      -1.82198328E-23
  -28.7999992      -8.66643285E-23
  -28.6800003      -3.04644526E-22
  -28.5599995      -8.20900825E-22
  -28.4400005      -1.66848519E-21
  -28.3199997      -2.21920159E-21
  -28.2000008      -9.99632107E-23
  -28.0799999       1.01520442E-20
  -27.9599991       3.74186750E-20
  -27.8400002       9.06807991E-20
  -27.7199993       1.68662179E-19
  -27.6000004       2.40680452E-19
  -27.4799995       2.22855356E-19
  -27.3600006      -3.56601956E-20
  -27.2399998      -7.30059889E-19
  -27.1200008      -2.01003545E-18
  -27.0000000      -3.80639277E-18
  -26.8799992      -5.60052643E-18
  -26.7600002      -6.23136166E-18
  -26.6399994      -3.90521438E-18
  -26.5200005       3.39662735E-18
  -26.3999996       1.69827757E-17
  -26.2800007       3.60539111E-17
  -26.1599998       5.62169017E-17
  -26.0400009       6.86225661E-17
  -25.9200001       6.06444687E-17
  -25.7999992       1.89028836E-17
  -25.6800003      -6.51390703E-17
  -25.5599995      -1.87828735E-16
  -25.4400005      -3.26369947E-16
  -25.3199997      -4.35567026E-16
  -25.2000008      -4.51972228E-16
  -25.0799999      -3.08171841E-16
  -24.9599991       4.27487404E-17
  -24.8400002       5.96745087E-16
  -24.7199993       1.27132573E-15
  -24.6000004       1.89357222E-15
  -24.4799995       2.21641904E-15
  -24.3600006       1.97097028E-15
  -24.2399998       9.52115008E-16
  -24.1200008      -8.79534501E-16
  -24.0000000      -3.30995658E-15
  -23.8799992      -5.83598755E-15
  -23.7600002      -7.71450503E-15
  -23.6399994      -8.11054715E-15
  -23.5200005      -6.32795149E-15
  -23.3999996      -2.07231862E-15
  -23.2800007       4.32927941E-15
  -23.1599998       1.18332654E-14
  -23.0400009       1.87703263E-14
  -22.9200001       2.31388683E-14
  -22.7999992       2.30603653E-14
  -22.6800003       1.73017135E-14
  -22.5599995       5.73656621E-15
  -22.4400005      -1.03825326E-14
  -22.3199997      -2.84346928E-14
  -22.2000008      -4.47569363E-14
  -22.0799999      -5.52509258E-14
  -21.9599991      -5.61778441E-14
  -21.8400002      -4.50164943E-14
  -21.7199993      -2.12519127E-14
  -21.6000004       1.30338338E-14
  -21.4799995       5.28988847E-14
  -21.3600006       9.07549182E-14
  -21.2399998       1.17221513E-13
  -21.1200008       1.22757354E-13
  -21.0000000       1.00063180E-13
  -20.8799992       4.69594761E-14
  -20.7600002      -3.09665284E-14
  -20.6399994      -1.19032022E-13
  -20.5200005      -1.94648375E-13
  -20.3999996      -2.31829367E-13
  -20.2800007      -2.08798053E-13
  -20.1599998      -1.17011178E-13
  -20.0400009       3.14615345E-14
  -19.9200001       2.01838112E-13
  -19.7999992       3.42554706E-13
  -19.6800003       3.99470875E-13
  -19.5599995       3.35064713E-13
  -19.4400005       1.46126451E-13
  -19.3199997      -1.27764810E-13
  -19.2000008      -4.10729610E-13
  -19.0799999      -6.12630118E-13
  -18.9599991      -6.60504041E-13
  -18.8400002      -5.27723481E-13
  -18.7199993      -2.47918765E-13
  -18.6000004       9.47527714E-14
  -18.4799995       3.97935320E-13
  -18.3600006       5.84098687E-13
  -18.2399998       6.35198057E-13
  -18.1200008       6.00738534E-13
  -18.0000000       5.71040773E-13
  -17.8799992       6.23571941E-13
  -17.7600002       7.65515743E-13
  -17.6399994       9.02506965E-13
  -17.5200005       8.56637461E-13
  -17.3999996       4.37152322E-13
  -17.2800007      -4.58126213E-13
  -17.1599998      -1.75249518E-12
  -17.0400009      -3.15693999E-12
  -16.9200001      -4.22265738E-12
  -16.7999992      -4.47571971E-12
  -16.6800003      -3.59341810E-12
  -16.5599995      -1.55730008E-12
  -16.4400005       1.28211764E-12
  -16.3199997       4.26664520E-12
  -16.2000008       6.60957313E-12
  -16.0799999       7.63774807E-12
  -15.9600000       7.01320339E-12
  -15.8400002       4.85362792E-12
  -15.7200003       1.70506578E-12
  -15.6000004      -1.62673726E-12
  -15.4799995      -4.32836753E-12
  -15.3599997      -5.82618979E-12
  -15.2399998      -5.94416790E-12
  -15.1199999      -4.92117415E-12
  -15.0000000      -3.28867706E-12
  -14.8800001      -1.65919947E-12
  -14.7600002      -5.05206120E-13
  -14.6400003      -7.62612731E-15
  -14.5200005      -2.47976739E-14
  -14.3999996      -1.87712937E-13
  -14.2799997      -8.22420677E-14
  -14.1599998       5.51456450E-13
  -14.0400000       1.67843864E-12
  -13.9200001       2.94430539E-12
  -13.8000002       3.78459330E-12
  -13.6800003       3.63994728E-12
  -13.5600004       2.20840100E-12
  -13.4399996      -3.55028994E-13
  -13.3199997      -3.37452527E-12
  -13.1999998      -5.77259594E-12
  -13.0799999      -6.36219116E-12
  -12.9600000      -4.23975265E-12
  -12.8400002       8.39167982E-13
  -12.7200003       8.23180846E-12
  -12.6000004       1.64257132E-11
  -12.4799995       2.33296715E-11
  -12.3599997       2.67776461E-11
  -12.2399998       2.51088334E-11
  -12.1199999       1.76508773E-11
  -12.0000000       4.95396649E-12
  -11.8800001      -1.13022022E-11
  -11.7600002      -2.87018118E-11
  -11.6400003      -4.46606085E-11
  -11.5200005      -5.69835047E-11
  -11.3999996      -6.42332923E-11
  -11.2799997      -6.58008578E-11
  -11.1599998      -6.16783014E-11
  -11.0400000      -5.20496597E-11
  -10.9200001      -3.68899945E-11
  -10.8000002      -1.57711014E-11
  -10.6800003       1.19937289E-11
  -10.5600004       4.68558595E-11
  -10.4399996       8.83156673E-11
  -10.3199997       1.34217887E-10
  -10.1999998       1.80322243E-10
  -10.0799999       2.20355068E-10
  -9.96000004       2.46609344E-10
  -9.84000015       2.50987203E-10
  -9.72000027       2.26226551E-10
  -9.60000038       1.66979555E-10
  -9.47999954       7.04466763E-11
  -9.35999966      -6.35921593E-11
  -9.23999977      -2.33309511E-10
  -9.11999989      -4.35699254E-10
  -9.00000000      -6.67445321E-10
  -8.88000011      -9.25467813E-10
  -8.76000023      -1.20695298E-09
  -8.64000034      -1.50888257E-09
  -8.52000046      -1.82728255E-09
  -8.39999962      -2.15654672E-09
  -8.27999973      -2.48919885E-09
  -8.15999985      -2.81633805E-09
  -8.03999996      -3.12879300E-09
  -7.92000008      -3.41878059E-09
  -7.80000019      -3.68166209E-09
  -7.67999983      -3.91732335E-09
  -7.55999994      -4.13074774E-09
  -7.44000006      -4.33153824E-09
  -7.32000017      -4.53241178E-09
  -7.19999981      -4.74695483E-09
  -7.07999992      -4.98714670E-09
  -6.96000004      -5.26126165E-09
  -6.84000015      -5.57266810E-09
  -6.71999979      -5.91982774E-09
  -6.59999990      -6.29749941E-09
  -6.48000002      -6.69878419E-09
  -6.36000013      -7.11745818E-09
  -6.23999977      -7.54993579E-09
  -6.11999989      -7.99636979E-09
  -6.00000000      -8.46067660E-09
  -5.88000011      -8.94959484E-09
  -5.76000023      -9.47119716E-09
  -5.63999987      -1.00333502E-08
  -5.51999998      -1.06425473E-08
  -5.40000010      -1.13033485E-08
  -5.28000021      -1.20183588E-08
  -5.15999985      -1.27885267E-08
  -5.03999996      -1.36135103E-08
  -4.92000008      -1.44919463E-08
  -4.80000019      -1.54216711E-08
  -4.67999983      -1.64000706E-08
  -4.55999994      -1.74247585E-08
  -4.44000006      -1.84946902E-08
  -4.32000017      -1.96115444E-08
  -4.19999981      -2.07810320E-08
  -4.07999992      -2.20136442E-08
  -3.96000004      -2.33244535E-08
  -3.83999991      -2.47318379E-08
  -3.72000003      -2.62553677E-08
  -3.59999990      -2.79134209E-08
  -3.48000002      -2.97212761E-08
  -3.35999990      -3.16903446E-08
  -3.24000001      -3.38288508E-08
  -3.11999989      -3.61438381E-08
  -3.00000000      -3.86437442E-08
  -2.88000011      -4.13405665E-08
  -2.75999999      -4.42505517E-08
  -2.64000010      -4.73927173E-08
  -2.51999998      -5.07851787E-08
  -2.40000010      -5.44401253E-08
  -2.27999997      -5.83588680E-08
  -2.16000009      -6.25288052E-08
  -2.03999996      -6.69236542E-08
  -1.91999996      -7.15077419E-08
  -1.79999995      -7.62436656E-08
  -1.67999995      -8.11016889E-08
  -1.55999994      -8.60684324E-08
  -1.44000006      -9.11522520E-08
  -1.32000005      -9.63837010E-08
  -1.20000005      -1.01810713E-07
  -1.08000004      -1.07489591E-07
 -0.959999979      -1.13474343E-07
 -0.839999974      -1.19807225E-07
 -0.720000029      -1.26513086E-07
 -0.600000024      -1.33598874E-07
 -0.479999989      -1.41058038E-07
 -0.360000014      -1.48878414E-07
 -0.239999995      -1.57050607E-07
 -0.119999997      -1.65574647E-07
  -1.11022302E-15  -1.74462656E-07
  0.119999997      -1.83737114E-07
  0.239999995      -1.93425350E-07
  0.360000014      -2.03552389E-07
  0.479999989      -2.14134388E-07
  0.600000024      -2.25174929E-07
  0.720000029      -2.36665429E-07
  0.839999974      -2.48589373E-07
  0.959999979      -2.60929482E-07
   1.08000004      -2.73675511E-07
   1.20000005      -2.86830470E-07
   1.32000005      -3.00413603E-07
   1.44000006      -3.14459584E-07
   1.55999994      -3.29013830E-07
   1.67999995      -3.44125567E-07
   1.79999995      -3.59840072E-07
   1.91999996      -3.76191906E-07
   2.03999996      -3.93200253E-07
   2.16000009      -4.10867244E-07
   2.27999997      -4.29178812E-07
   2.40000010      -4.48108125E-07
   2.51999998      -4.67620595E-07
   2.64000010      -4.87680040E-07
   2.75999999      -5.08254743E-07
   2.88000011      -5.29322904E-07
   3.00000000      -5.50875882E-07
   3.11999989      -5.72918736E-07
   3.24000001      -5.95467327E-07
   3.35999990      -6.18542117E-07
   3.48000002      -6.42159307E-07
   3.59999990      -6.66321228E-07
   3.72000003      -6.91008552E-07
   3.83999991      -7.16176373E-07
   3.96000004      -7.41755684E-07
   4.07999992      -7.67660367E-07
   4.19999981      -7.93798392E-07
   4.32000017      -8.20085006E-07
   4.44000006      -8.46453020E-07
   4.55999994      -8.72860198E-07
   4.67999983      -8.99288352E-07
   4.80000019      -9.25737027E-07
   4.92000008      -9.52211053E-07
   5.03999996      -9.78706566E-07
   5.15999985      -1.00519787E-06
   5.28000021      -1.03162824E-06
   5.40000010      -1.05790787E-06
   5.51999998      -1.08391691E-06
   5.63999987      -1.10951532E-06
   5.76000023      -1.13455451E-06
   5.88000011      -1.15888884E-06
   6.00000000      -1.18238393E-06
   6.11999989      -1.20492030E-06
   6.23999977      -1.22638994E-06
   6.36000013      -1.24668907E-06
   6.48000002      -1.26570865E-06
   6.59999990      -1.28332397E-06
   6.71999979      -1.29938724E-06
   6.84000015      -1.31372406E-06
   6.96000004      -1.32613400E-06
   7.07999992      -1.33639435E-06
   7.19999981      -1.34426557E-06
   7.32000017      -1.34949630E-06
   7.44000006      -1.35182756E-06
   7.55999994      -1.35099492E-06
   7.67999983      -1.34673041E-06
   7.80000019      -1.33876290E-06
   7.92000008      -1.32681919E-06
   8.03999996      -1.31062416E-06
   8.15999985      -1.28989984E-06
   8.27999973      -1.26436248E-06
   8.39999962      -1.23371660E-06
   8.52000046      -1.19764729E-06
   8.64000034      -1.15581213E-06
   8.76000023      -1.10783537E-06
   8.88000011      -1.05330469E-06
   9.00000000      -9.91772936E-07
   9.11999989      -9.22764116E-07
   9.23999977      -8.45781472E-07
   9.35999966      -7.60317164E-07
   9.47999954      -6.65859773E-07
   9.60000038      -5.61900208E-07
   9.72000027      -4.47933843E-07
   9.84000015      -3.23461080E-07
   9.96000004      -1.87984739E-07
   10.0799999      -4.10058973E-08
   10.1999998       1.17981386E-07
   10.3199997       2.89498274E-07
   10.4399996       4.74090655E-07
   10.5600004       6.72338331E-07
   10.6800003       8.84863312E-07
   10.8000002       1.11233260E-06
   10.9200001       1.35545656E-06
   11.0400000       1.61498008E-06
   11.1599998       1.89166997E-06
   11.2799997       2.18630021E-06
   11.3999996       2.49963955E-06
   11.5200005       2.83244208E-06
   11.6400003       3.18545040E-06
   11.7600002       3.55940256E-06
   11.8800001       3.95504594E-06
   12.0000000       4.37315430E-06
   12.1199999       4.81453799E-06
   12.2399998       5.28005148E-06
   12.3599997       5.77059609E-06
   12.4799995       6.28710586E-06
   12.6000004       6.83054532E-06
   12.7200003       7.40189080E-06
   12.8400002       8.00212820E-06
   12.9600000       8.63224614E-06
   13.0799999       9.29323687E-06
   13.1999998       9.98610176E-06
   13.3199997       1.07118494E-05
   13.4399996       1.14715058E-05
   13.5600004       1.22661068E-05
   13.6800003       1.30966982E-05
   13.8000002       1.39643362E-05
   13.9200001       1.48700865E-05
   14.0400000       1.58150197E-05
   14.1599998       1.68002261E-05
   14.2799997       1.78268074E-05
   14.3999996       1.88958802E-05
   14.5200005       2.00085815E-05
   14.6400003       2.11660572E-05
   14.7600002       2.23694587E-05
   14.8800001       2.36199467E-05
   15.0000000       2.49186778E-05
   15.1199999       2.62668127E-05
   15.2399998       2.76655064E-05
   15.3599997       2.91159158E-05
   15.4799995       3.06192014E-05
   15.6000004       3.21765074E-05
   15.7200003       3.37889724E-05
   15.8400002       3.54577314E-05
   15.9600000       3.71839160E-05
   16.0799999       3.89686429E-05
   16.2000008       4.08130581E-05
   16.3199997       4.27183222E-05
   16.4400005       4.46856138E-05
   16.5599995       4.67161299E-05
   16.6800003       4.88110854E-05
   16.7999992       5.09716738E-05
   16.9200001       5.31990627E-05
   17.0400009       5.54943690E-05
   17.1599998       5.78586405E-05
   17.2800007       6.02928594E-05
   17.3999996       6.27979607E-05
   17.5200005       6.53748139E-05
   17.6399994       6.80242811E-05
   17.7600002       7.07472282E-05
   17.8799992       7.35444992E-05
   18.0000000       7.64169963E-05
   18.1200008       7.93655927E-05
   18.2399998       8.23912196E-05
   18.3600006       8.54947575E-05
   18.4799995       8.86771013E-05
   18.6000004       9.19391096E-05
   18.7199993       9.52815753E-05
   18.8400002       9.87052190E-05
   18.9599991       1.02210688E-04
   19.0799999       1.05798492E-04
   19.2000008       1.09469089E-04
   19.3199997       1.13222792E-04
   19.4400005       1.17059892E-04
   19.5599995       1.20980578E-04
   19.6800003       1.24985076E-04
   19.7999992       1.29073538E-04
   19.9200001       1.33246154E-04
   20.0400009       1.37503055E-04
   20.1599998       1.41844357E-04
   20.2800007       1.46270118E-04
   20.3999996       1.50780295E-04
   20.5200005       1.55374757E-04
   20.6399994       1.60053300E-04
   20.7600002       1.64815545E-04
   20.8799992       1.69661056E-04
   21.0000000       1.74589281E-04
   21.1200008       1.79599621E-04
   21.2399998       1.84691307E-04
   21.3600006       1.89863582E-04
   21.4799995       1.95115514E-04
   21.6000004       2.00446142E-04
   21.7199993       2.05854376E-04
   21.8400002       2.11339080E-04
   21.9599991       2.16898989E-04
   22.0799999       2.22532748E-04
   22.2000008       2.28238801E-04
   22.3199997       2.34015533E-04
   22.4400005       2.39861096E-04
   22.5599995       2.45773525E-04
   22.6800003       2.51750753E-04
   22.7999992       2.57790642E-04
   22.9200001       2.63890863E-04
   23.0400009       2.70049088E-04
   23.1599998       2.76262872E-04
   23.2800007       2.82529742E-04
   23.3999996       2.88846961E-04
   23.5200005       2.95211736E-04
   23.6399994       3.01621069E-04
   23.7600002       3.08071816E-04
   23.8799992       3.14560573E-04
   24.0000000       3.21083906E-04
   24.1200008       3.27638176E-04
   24.2399998       3.34219629E-04
   24.3600006       3.40824306E-04
   24.4799995       3.47448309E-04
   24.6000004       3.54087475E-04
   24.7199993       3.60737584E-04
   24.8400002       3.67394241E-04
   24.9599991       3.74052906E-04
   25.0799999       3.80708923E-04
   25.2000008       3.87357373E-04
   25.3199997       3.93993279E-04
   25.4400005       4.00611461E-04
   25.5599995       4.07206593E-04
   25.6800003       4.13773232E-04
   25.7999992       4.20305791E-04
   25.9200001       4.26798593E-04
   26.0400009       4.33245819E-04
   26.1599998       4.39641619E-04
   26.2800007       4.45979967E-04
   26.3999996       4.52254841E-04
   26.5200005       4.58460127E-04
   26.6399994       4.64589481E-04
   26.7600002       4.70636442E-04
   26.8799992       4.76594403E-04
   27.0000000       4.82456700E-04
   27.1200008       4.88216494E-04
   27.2399998       4.93866857E-04
   27.3600006       4.99400834E-04
   27.4799995       5.04811469E-04
   27.6000004       5.10091777E-04
   27.7199993       5.15234657E-04
   27.8400002       5.20233065E-04
   27.9599991       5.25079842E-04
   28.0799999       5.29767771E-04
   28.2000008       5.34289633E-04
   28.3199997       5.38638269E-04
   28.4400005       5.42806403E-04
   28.5599995       5.46786818E-04
   28.6800003       5.50572178E-04
   28.7999992       5.54155384E-04
   28.9200001       5.57529042E-04
   29.0400009       5.60686050E-04
   29.1599998       5.63619018E-04
   29.2800007       5.66321018E-04
   29.3999996       5.68784832E-04
   29.5200005       5.71003649E-04
   29.6399994       5.72970486E-04
   29.7600002       5.74678823E-04
   29.8799992       5.76121965E-04
   30.0000000       5.77293453E-04
   30.1200008       5.78187115E-04
   30.2399998       5.78796607E-04
   30.3600006       5.79115935E-04
   30.4799995       5.79139276E-04
   30.6000004       5.78860927E-04
   30.7199993       5.78275474E-04
   30.8400002       5.77377621E-04
   30.9599991       5.76162187E-04
   31.0799999       5.74624224E-04
   31.2000008       5.72759192E-04
   31.3199997       5.70562610E-04
   31.4400005       5.68030344E-04
   31.5599995       5.65158494E-04
   31.6800003       5.61943452E-04
   31.7999992       5.58382017E-04
   31.9200001       5.54471160E-04
   32.0400009       5.50208322E-04
   32.1599998       5.45591116E-04
   32.2799988       5.40617562E-04
   32.4000015       5.35285973E-04
   32.5200005       5.29595127E-04
   32.6399994       5.23543975E-04
   32.7599983       5.17131994E-04
   32.8800011       5.10359067E-04
   33.0000000       5.03225427E-04
   33.1199989       4.95731656E-04
   33.2400017       4.87878802E-04
   33.3600006       4.79668204E-04
   33.4799995       4.71101754E-04
   33.5999985       4.62181517E-04
   33.7200012       4.52910084E-04
   33.8400002       4.43290483E-04
   33.9599991       4.33326088E-04
   34.0800018       4.23020800E-04
   34.2000008       4.12378839E-04
   34.3199997       4.01404890E-04
   34.4399986       3.90104076E-04
   34.5600014       3.78481956E-04
   34.6800003       3.66544555E-04
   34.7999992       3.54298390E-04
   34.9199982       3.41750507E-04
   35.0400009       3.28908209E-04
   35.1599998       3.15779296E-04
   35.2799988       3.02371947E-04
   35.4000015       2.88694602E-04
   35.5200005       2.74756138E-04
   35.6399994       2.60565779E-04
   35.7599983       2.46133131E-04
   35.8800011       2.31468177E-04
   36.0000000       2.16581378E-04
   36.1199989       2.01483534E-04
   36.2400017       1.86185818E-04
   36.3600006       1.70699743E-04
   36.4799995       1.55037182E-04
   36.5999985       1.39210228E-04
   36.7200012       1.23231323E-04
   36.8400002       1.07113170E-04
   36.9599991       9.08687725E-05
   37.0800018       7.45114012E-05
   37.2000008       5.80545711E-05
   37.3199997       4.15120412E-05
   37.4399986       2.48977412E-05
   37.5600014       8.22579295E-06
   37.6800003      -8.48956915E-06
   37.7999992      -2.52339596E-05
   37.9199982      -4.19929020E-05
   38.0400009      -5.87517825E-05
   38.1599998      -7.54958601E-05
   38.2799988      -9.22103136E-05
   38.4000015      -1.08880187E-04
   38.5200005      -1.25490522E-04
   38.6399994      -1.42026329E-04
   38.7599983      -1.58472583E-04
   38.8800011      -1.74814370E-04
   39.0000000      -1.91036757E-04
   39.1199989      -2.07124904E-04
   39.2400017      -2.23064140E-04
   39.3600006      -2.38839813E-04
   39.4799995      -2.54437531E-04
   39.5999985      -2.69843003E-04
   39.7200012      -2.85042188E-04
   39.8400002      -3.00021260E-04
   39.9599991      -3.14766512E-04
   40.0800018      -3.29264614E-04
   40.2000008      -3.43502412E-04
   40.3199997      -3.57466983E-04
   40.4399986      -3.71145783E-04
   40.5600014      -3.84526473E-04
   40.6800003      -3.97597090E-04
   40.7999992      -4.10346023E-04
   40.9199982      -4.22762125E-04
   41.0400009      -4.34834597E-04
   41.1599998      -4.46553109E-04
   41.2799988      -4.57907736E-04
   41.4000015      -4.68889019E-04
   41.5200005      -4.79487877E-04
   41.6399994      -4.89695871E-04
   41.7599983      -4.99504909E-04
   41.8800011      -5.08907426E-04
   42.0000000      -5.17896493E-04
   42.1199989      -5.26465476E-04
   42.2400017      -5.34608611E-04
   42.3600006      -5.42320369E-04
   42.4799995      -5.49595745E-04
   42.5999985      -5.56430314E-04
   42.7200012      -5.62820118E-04
   42.8400002      -5.68761956E-04
   42.9599991      -5.74253092E-04
   43.0800018      -5.79291489E-04
   43.2000008      -5.83875808E-04
   43.3199997      -5.88005118E-04
   43.4399986      -5.91679302E-04
   43.5600014      -5.94898593E-04
   43.6800003      -5.97663806E-04
   43.7999992      -5.99976338E-04
   43.9199982      -6.01838110E-04
   44.0400009      -6.03251741E-04
   44.1599998      -6.04220317E-04
   44.2799988      -6.04747504E-04
   44.4000015      -6.04837493E-04
   44.5200005      -6.04495173E-04
   44.6399994      -6.03725610E-04
   44.7599983      -6.02534565E-04
   44.8800011      -6.00928208E-04
   45.0000000      -5.98913175E-04
   45.1199989      -5.96496800E-04
   45.2400017      -5.93686709E-04
   45.3600006      -5.90491167E-04
   45.4799995      -5.86918788E-04
   45.5999985      -5.82978653E-04
   45.7200012      -5.78680017E-04
   45.8400002      -5.74032892E-04
   45.9599991      -5.69047232E-04
   46.0800018      -5.63733745E-04
   46.2000008      -5.58103144E-04
   46.3199997      -5.52166719E-04
   46.4399986      -5.45935647E-04
   46.5600014      -5.39421686E-04
   46.6800003      -5.32636710E-04
   46.7999992      -5.25592652E-04
   46.9199982      -5.18301676E-04
   47.0400009      -5.10776357E-04
   47.1599998      -5.03029267E-04
   47.2799988      -4.95073153E-04
   47.4000015      -4.86920937E-04
   47.5200005      -4.78585687E-04
   47.6399994      -4.70080413E-04
   47.7599983      -4.61418153E-04
   47.8800011      -4.52612003E-04
   48.0000000      -4.43675061E-04
   48.1199989      -4.34620393E-04
   48.2400017      -4.25461127E-04
   48.3600006      -4.16210358E-04
   48.4799995      -4.06880950E-04
   48.5999985      -3.97485768E-04
   48.7200012      -3.88037530E-04
   48.8400002      -3.78548692E-04
   48.9599991      -3.69031535E-04
   49.0800018      -3.59498168E-04
   49.2000008      -3.49960494E-04
   49.3199997      -3.40430241E-04
   49.4399986      -3.30918963E-04
   49.5600014      -3.21437896E-04
   49.6800003      -3.11998068E-04
   49.7999992      -3.02610249E-04
   49.9199982      -2.93284887E-04
   50.0400009      -2.84032198E-04
   50.1599998      -2.74862046E-04
   50.2799988      -2.65783980E-04
   50.4000015      -2.56807194E-04
   50.5200005      -2.47940596E-04
   50.6399994      -2.39192625E-04
   50.7599983      -2.30571401E-04
   50.8800011      -2.22084665E-04
   51.0000000      -2.13739724E-04
   51.1199989      -2.05543533E-04
   51.2400017      -1.97502595E-04
   51.3600006      -1.89623082E-04
   51.4799995      -1.81910757E-04
   51.5999985      -1.74370987E-04
   51.7200012      -1.67008737E-04
   51.8400002      -1.59828604E-04
   51.9599991      -1.52834764E-04
   52.0800018      -1.46031016E-04
   52.2000008      -1.39420765E-04
   52.3199997      -1.33007037E-04
   52.4399986      -1.26792438E-04
   52.5600014      -1.20779201E-04
   52.6800003      -1.14969211E-04
   52.7999992      -1.09363900E-04
   52.9199982      -1.03964361E-04
   53.0400009      -9.87713138E-05
   53.1599998      -9.37850928E-05
   53.2799988      -8.90056981E-05
   53.4000015      -8.44327951E-05
   53.5200005      -8.00657290E-05
   53.6399994      -7.59035465E-05
   53.7599983      -7.19449454E-05
   53.8800011      -6.81883248E-05
   54.0000000      -6.46318003E-05
   54.1199989      -6.12731601E-05
   54.2400017      -5.81099303E-05
   54.3600006      -5.51393605E-05
   54.4799995      -5.23584786E-05
   54.5999985      -4.97640940E-05
   54.7200012      -4.73528198E-05
   54.8400002      -4.51210835E-05
   54.9599991      -4.30651380E-05
   55.0800018      -4.11810506E-05
   55.2000008      -3.94646886E-05
   55.3199997      -3.79117446E-05
   55.4399986      -3.65177293E-05
   55.5600014      -3.52780044E-05
   55.6800003      -3.41878003E-05
   55.7999992      -3.32422387E-05
   55.9199982      -3.24363464E-05
   56.0400009      -3.17650592E-05
   56.1599998      -3.12232405E-05
   56.2799988      -3.08056697E-05
   56.4000015      -3.05070771E-05
   56.5200005      -3.03221532E-05
   56.6399994      -3.02455865E-05
   56.7599983      -3.02720819E-05
   56.8800011      -3.03963952E-05
   57.0000000      -3.06133006E-05
   57.1199989      -3.09175921E-05
   57.2400017      -3.13040728E-05
   57.3600006      -3.17675149E-05
   57.4799995      -3.23026979E-05
   57.5999985      -3.29044233E-05
   57.7200012      -3.35675504E-05
   57.8400002      -3.42870298E-05
   57.9599991      -3.50579248E-05
   58.0800018      -3.58754405E-05
   58.2000008      -3.67348839E-05
   58.3199997      -3.76316784E-05
   58.4399986      -3.85613566E-05
   58.5600014      -3.95195275E-05
   58.6800003      -4.05019164E-05
   58.7999992      -4.15043360E-05
   58.9199982      -4.25227299E-05
   59.0400009      -4.35531292E-05
   59.1599998      -4.45917067E-05
   59.2799988      -4.56347370E-05
   59.4000015      -4.66786551E-05
   59.5200005      -4.77200228E-05
   59.6399994      -4.87555481E-05
   59.7599983      -4.97821165E-05
   59.8800011      -5.07967598E-05
   60.0000000      -5.17966764E-05
   60.1199989      -5.27792326E-05
   60.2400017      -5.37419510E-05
   60.3600006      -5.46825140E-05
   60.4799995      -5.55987463E-05
   60.5999985      -5.64886177E-05
   60.7200012      -5.73502184E-05
   60.8400002      -5.81817585E-05
   60.9599991      -5.89815645E-05
   61.0800018      -5.97480685E-05
   61.2000008      -6.04798552E-05
   61.3199997      -6.11756404E-05
   61.4399986      -6.18343111E-05
   61.5600014      -6.24548848E-05
   61.6800003      -6.30365030E-05
   61.7999992      -6.35784527E-05
   61.9199982      -6.40800936E-05
   62.0400009      -6.45409018E-05
   62.1599998      -6.49604772E-05
   62.2799988      -6.53385287E-05
   62.4000015      -6.56748962E-05
   62.5200005      -6.59695652E-05
   62.6399994      -6.62226157E-05
   62.7599983      -6.64342588E-05
   62.8800011      -6.66047345E-05
   63.0000000      -6.67343993E-05
   63.1199989      -6.68236753E-05
   63.2400017      -6.68730572E-05
   63.3600006      -6.68831271E-05
   63.4799995      -6.68544963E-05
   63.5999985      -6.67878339E-05
   63.7200012      -6.66838096E-05
   63.8400002      -6.65431289E-05
   63.9599991      -6.63665196E-05
   64.0800018      -6.61548038E-05
   64.1999969      -6.59088691E-05
   64.3199997      -6.56297343E-05
   64.4400024      -6.53184834E-05
   64.5599976      -6.49762878E-05
   64.6800003      -6.46043336E-05
   64.8000031      -6.42038212E-05
   64.9199982      -6.37759294E-05
   65.0400009      -6.33218297E-05
   65.1600037      -6.28427006E-05
   65.2799988      -6.23396991E-05
   65.4000015      -6.18140111E-05
   65.5199966      -6.12667864E-05
   65.6399994      -6.06991562E-05
   65.7600021      -6.01122156E-05
   65.8799973      -5.95070451E-05
   66.0000000      -5.88847324E-05
   66.1200027      -5.82463981E-05
   66.2399979      -5.75932136E-05
   66.3600006      -5.69264121E-05
   66.4800034      -5.62472342E-05
   66.5999985      -5.55569204E-05
   66.7200012      -5.48566568E-05
   66.8399963      -5.41475711E-05
   66.9599991      -5.34307146E-05
   67.0800018      -5.27070697E-05
   67.1999969      -5.19776113E-05
   67.3199997      -5.12432816E-05
   67.4400024      -5.05050157E-05
   67.5599976      -4.97637448E-05
   67.6800003      -4.90203820E-05
   67.8000031      -4.82757860E-05
   67.9199982      -4.75307861E-05
   68.0400009      -4.67861682E-05
   68.1600037      -4.60426891E-05
   68.2799988      -4.53010980E-05
   68.4000015      -4.45621336E-05
   68.5199966      -4.38265233E-05
   68.6399994      -4.30949767E-05
   68.7600021      -4.23681595E-05
   68.8799973      -4.16466901E-05
   69.0000000      -4.09311142E-05
   69.1200027      -4.02219230E-05
   69.2399979      -3.95195711E-05
   69.3600006      -3.88244989E-05
   69.4800034      -3.81371065E-05
   69.5999985      -3.74578049E-05
   69.7200012      -3.67869688E-05
   69.8399963      -3.61249440E-05
   69.9599991      -3.54720396E-05
   70.0800018      -3.48285139E-05
   70.1999969      -3.41945888E-05
   70.3199997      -3.35704572E-05
   70.4400024      -3.29562899E-05
   70.5599976      -3.23522472E-05
   70.6800003      -3.17584563E-05
   70.8000031      -3.11750227E-05
   70.9199982      -3.06020265E-05
   71.0400009      -3.00395131E-05
   71.1600037      -2.94875354E-05
   71.2799988      -2.89461459E-05
   71.4000015      -2.84154085E-05
   71.5199966      -2.78953903E-05
   71.6399994      -2.73861460E-05
   71.7600021      -2.68876956E-05
   71.8799973      -2.63999937E-05
   72.0000000      -2.59229364E-05
   72.1200027      -2.54563656E-05
   72.2399979      -2.50000940E-05
   72.3600006      -2.45539322E-05
   72.4800034      -2.41177004E-05
   72.5999985      -2.36912401E-05
   72.7200012      -2.32744096E-05