  -30.0000000       0.00000000    
  -29.8799992       0.00000000    
  -29.7600002       0.00000000    
  -29.6399994       0.00000000    
  -29.5200005       0.00000000    
  -29.3999996       0.00000000    
  -29.2800007       4.48415509E-44
  -29.1599998       1.06498683E-43
  -29.0400009       4.41409016E-43
  -28.9200001      -1.11683488E-42
  -28.7999992      -1.14710292E-41
  -28.6800003      -4.79328153E-41
  -28.5599995      -1.73676932E-40
  -28.4400005      -6.07153197E-40
  -28.3199997      -1.77992090E-39
  -28.2000008      -3.69459627E-39
  -28.0799999      -3.39952065E-39
  -27.9599991       9.60998856E-39
  -27.8400002       5.56321656E-38
  -27.7199993       1.52742059E-37
  -27.6000004       2.76226128E-37
  -27.4799995       2.92505920E-37
  -27.3600006      -8.38826790E-38
  -27.2399998      -1.20754180E-36
  -27.1200008      -3.18829525E-36
  -27.0000000      -5.36366292E-36
  -26.8799992      -5.83834302E-36
  -26.7600002      -1.64725168E-36
  -26.6399994       9.88456440E-36
  -26.5200005       2.85241769E-35
  -26.3999996       4.82363475E-35
  -26.2800007       5.60857053E-35
  -26.1599998       3.52734372E-35
  -26.0400009      -2.67058713E-35
  -25.9200001      -1.26773714E-34
  -25.7999992      -2.37207184E-34
  -25.6800003      -3.05822786E-34
  -25.5599995      -2.70406312E-34
  -25.4400005      -8.63630649E-35
  -25.3199997       2.41456596E-34
  -25.2000008       6.37933988E-34
  -25.0799999       9.63260499E-34
  -24.9599991       1.05259182E-33
  -24.8400002       7.83118102E-34
  -24.7199993       1.45730845E-34
  -24.6000004      -7.12520712E-34
  -24.4799995      -1.50770981E-33
  -24.3600006      -1.91454510E-33
  -24.2399998      -1.71908573E-33
  -24.1200008      -9.70357179E-34
  -24.0000000      -4.58808073E-35
  -23.8799992       4.46200207E-34
  -23.7600002      -5.01242845E-35
  -23.6399994      -1.64605668E-33
  -23.5200005      -3.68096836E-33
  -23.3999996      -4.68434940E-33
  -23.2800007      -2.79269172E-33
  -23.1599998       3.38833455E-33
  -23.0400009       1.37305910E-32
  -22.9200001       2.58008961E-32
  -22.7999992       3.48596171E-32
  -22.6800003       3.49635308E-32
  -22.5599995       2.10918011E-32
  -22.4400005      -8.27942401E-33
  -22.3199997      -4.91118542E-32
  -22.2000008      -9.12874219E-32
  -22.0799999      -1.20347335E-31
  -21.9599991      -1.21496251E-31
  -21.8400002      -8.49942190E-32
  -21.7199993      -1.12804787E-32
  -21.6000004       8.61859175E-32
  -21.4799995       1.82089047E-31
  -21.3600006       2.45136605E-31
  -21.2399998       2.47821927E-31
  -21.1200008       1.77547525E-31
  -21.0000000       4.53315996E-32
  -20.8799992      -1.11930290E-31
  -20.7600002      -2.38520711E-31
  -20.6399994      -2.76546354E-31
  -20.5200005      -1.88886708E-31
  -20.3999996       1.83806042E-32
  -20.2800007       2.83076366E-31
  -20.1599998       4.92012235E-31
  -20.0400009       5.08554403E-31
  -19.9200001       2.19948488E-31
  -19.7999992      -4.06962116E-31
  -19.6800003      -1.28016554E-30
  -19.5599995      -2.16791439E-30
  -19.4400005      -2.73092371E-30
  -19.3199997      -2.60441870E-30
  -19.2000008      -1.51569079E-30
  -19.0799999       5.93677215E-31
  -18.9599991       3.48072905E-30
  -18.8400002       6.58551883E-30
  -18.7199993       9.10656188E-30
  -18.6000004       1.01614163E-29
  -18.4799995       9.00050258E-30
  -18.3600006       5.22500581E-30
  -18.2399998      -1.04329139E-30
  -18.1200008      -9.08111177E-30
  -18.0000000      -1.75932241E-29
  -17.8799992      -2.48545743E-29
  -17.7600002      -2.89536965E-29
  -17.6399994      -2.81183395E-29
  -17.5200005      -2.10965674E-29
  -17.3999996      -7.55184290E-30
  -17.2800007       1.15928577E-29
  -17.1599998       3.39524808E-29
  -17.0400009       5.57222149E-29
  -16.9200001       7.20532522E-29
  -16.7999992       7.77994146E-29
  -16.6800003       6.85906107E-29
  -16.5599995       4.20915119E-29
  -16.4400005      -7.88418496E-31
  -16.3199997      -5.50382028E-29
  -16.2000008      -1.11379767E-28
  -16.0799999      -1.57109023E-28
  -15.9600000      -1.78151649E-28
  -15.8400002      -1.62313199E-28
  -15.7200003      -1.03334519E-28
  -15.6000004      -4.89234016E-30
  -15.4799995       1.16768386E-28
  -15.3599997       2.33105099E-28
  -15.2399998       3.07734331E-28
  -15.1199999       3.05457593E-28
  -15.0000000       2.04721057E-28
  -14.8800001       1.05393575E-29
  -14.7600002      -2.36641396E-28
  -14.6400003      -4.61211929E-28
  -14.5200005      -5.65747266E-28
  -14.3999996      -4.58294530E-28
  -14.2799997      -8.97144932E-29
  -14.1599998       5.08218342E-28
  -14.0400000       1.19767960E-27
  -13.9200001       1.73782302E-27
  -13.8000002       1.82787295E-27
  -13.6800003       1.19309068E-27
  -13.5600004      -2.97903927E-28
  -13.4399996      -2.51290987E-27
  -13.3199997      -4.97611726E-27
  -13.1999998      -6.87721388E-27
  -13.0799999      -7.20918026E-27
  -12.9600000      -5.04578931E-27
  -12.8400002       7.64346525E-29
  -12.7200003       7.76220180E-27
  -12.6000004       1.64856491E-26
  -12.4799995       2.36004503E-26
  -12.3599997       2.57607490E-26
  -12.2399998       1.97934939E-26
  -12.1199999       3.92015452E-27
  -12.0000000      -2.09447223E-26
  -11.8800001      -5.02416759E-26
  -11.7600002      -7.56561858E-26
  -11.6400003      -8.62780007E-26
  -11.5200005      -7.12143381E-26
  -11.3999996      -2.34259564E-26
  -11.2799997       5.59685842E-26
  -11.1599998       1.54183431E-25
  -11.0400000       2.45629272E-25
  -10.9200001       2.94659245E-25
  -10.8000002       2.63097684E-25
  -10.6800003       1.22252955E-25
  -10.5600004      -1.32546160E-25
  -10.4399996      -4.68645254E-25
  -10.3199997      -8.09122600E-25
  -10.1999998      -1.03764229E-24
  -10.0799999      -1.01913788E-24
  -9.96000004      -6.36916681E-25
  -9.84000015       1.58496516E-25
  -9.72000027       1.29967181E-24
  -9.60000038       2.56810670E-24
  -9.47999954       3.59451768E-24
  -9.35999966       3.90997330E-24
  -9.23999977       3.05511136E-24
  -9.11999989       7.38845793E-25
  -9.00000000      -2.98231863E-24
  -8.88000011      -7.55368553E-24
  -8.76000023      -1.18637044E-23
  -8.64000034      -1.43406235E-23
  -8.52000046      -1.32475684E-23
  -8.39999962      -7.17556320E-24
  -8.27999973       4.33022199E-24
  -8.15999985       2.01502528E-23
  -8.03999996       3.71811412E-23
  -7.92000008       5.03736976E-23
  -7.80000019       5.34263179E-23
  -7.67999983       4.02315685E-23
  -7.55999994       6.97871480E-24
  -7.44000006      -4.54463872E-23
  -7.32000017      -1.09396908E-22
  -7.19999981      -1.69575509E-22
  -7.07999992      -2.04197428E-22
  -6.96000004      -1.88856746E-22
  -6.84000015      -1.03194549E-22
  -6.71999979       6.03920986E-23
  -6.59999990       2.87809325E-22
  -6.48000002       5.36884394E-22
  -6.36000013       7.36906703E-22
  -6.23999977       7.97223740E-22
  -6.11999989       6.26668074E-22
  -6.00000000       1.62970964E-22
  -5.88000011      -5.92322004E-22
  -5.76000023      -1.54194968E-21
  -5.63999987      -2.47586951E-21
  -5.51999998      -3.08202145E-21
  -5.40000010      -2.99548878E-21
  -5.28000021      -1.88962121E-21
  -5.15999985       3.99025561E-22
  -5.03999996       3.73501854E-21
  -4.92000008       7.57579180E-21
  -4.80000019       1.09394087E-20
  -4.67999983       1.24969413E-20
  -4.55999994       1.08227326E-20
  -4.44000006       4.80208072E-21
  -4.32000017      -5.85451740E-21
  -4.19999981      -2.01008314E-20
  -4.07999992      -3.52122773E-20
  -3.96000004      -4.68042410E-20
  -3.83999991      -4.93866278E-20
  -3.72000003      -3.75474922E-20
  -3.59999990      -7.70649118E-21
  -3.48000002       3.98306787E-20
  -3.35999990       9.90136744E-20
  -3.24000001       1.57066192E-19
  -3.11999989       1.95126129E-19
  -3.00000000       1.91110581E-19
  -2.88000011       1.25012659E-19
  -2.75999999      -1.38182202E-20
  -2.64000010      -2.18696835E-19
  -2.51999998      -4.59052308E-19
  -2.40000010      -6.78035037E-19
  -2.27999997      -7.97054488E-19
  -2.16000009      -7.29243876E-19
  -2.03999996      -4.02073652E-19
  -1.91999996       2.13344550E-19
  -1.79999995       1.07195370E-18
  -1.67999995       2.03217059E-18
  -1.55999994       2.85161665E-18
  -1.44000006       3.21127561E-18
  -1.32000005       2.77448909E-18
  -1.20000005       1.27979833E-18
  -1.08000004      -1.34396046E-18
 -0.959999979      -4.86403086E-18
 -0.839999974      -8.66610244E-18
 -0.720000029      -1.17528468E-17
 -0.600000024      -1.28551750E-17
 -0.479999989      -1.06767717E-17
 -0.360000014      -4.26295676E-18
 -0.239999995       6.55557882E-18
 -0.119999997       2.07384188E-17
  -1.11022302E-15   3.57627832E-17
  0.119999997       4.76523597E-17
  0.239999995       5.14394473E-17
  0.360000014       4.21288744E-17
  0.479999989       1.61201884E-17
  0.600000024      -2.71056697E-17
  0.720000029      -8.33921804E-17
  0.839999974      -1.42898971E-16
  0.959999979      -1.90232337E-16
   1.08000004      -2.06198418E-16
   1.20000005      -1.71429119E-16
   1.32000005      -7.17226207E-17
   1.44000006       9.56053367E-17
   1.55999994       3.15657919E-16
   1.67999995       5.51980720E-16
   1.79999995       7.46701683E-16
   1.91999996       8.26596266E-16
   2.03999996       7.16079536E-16
   2.16000009       3.56698253E-16
   2.27999997      -2.69238713E-16
   2.40000010      -1.11539247E-15
   2.51999998      -2.05485259E-15
   2.64000010      -2.87767437E-15
   2.75999999      -3.30930966E-15
   2.88000011      -3.05422462E-15
   3.00000000      -1.86427124E-15
   3.11999989       3.75199941E-16
   3.24000001       3.55606539E-15
   3.35999990       7.27653818E-15
   3.48000002       1.08146439E-14
   3.59999990       1.31717554E-14
   3.72000003       1.32049870E-14
   3.83999991       9.85295745E-15
   3.96000004       2.43801705E-15
   4.07999992      -8.99773200E-15
   4.19999981      -2.33912434E-14
   4.32000017      -3.84803341E-14
   4.44000006      -5.08427325E-14
   4.55999994      -5.62325251E-14
   4.67999983      -5.02551458E-14
   4.80000019      -2.93579621E-14
   4.92000008       7.97027171E-15
   5.03999996       5.99890959E-14
   5.15999985       1.20763656E-13
   5.28000021       1.79814754E-13
   5.40000010       2.22676275E-13
   5.51999998       2.32588254E-13
   5.63999987       1.93382853E-13
   5.76000023       9.33739238E-14
   5.88000011      -7.02367445E-14
   6.00000000      -2.87218410E-13
   6.11999989      -5.31450589E-13
   6.23999977      -7.60449050E-13
   6.36000013      -9.18270776E-13
   6.48000002      -9.42417151E-13
   6.59999990      -7.74720457E-13
   6.71999979      -3.75339381E-13
   6.84000015       2.61973684E-13
   6.96000004       1.09609251E-12
   7.07999992       2.02962625E-12
   7.19999981       2.90848682E-12
   7.32000017       3.53295431E-12
   7.44000006       3.68196315E-12
   7.55999994       3.15020254E-12
   7.67999983       1.79489670E-12
   7.80000019      -4.13859376E-13
   7.92000008      -3.34807616E-12
   8.03999996      -6.69286068E-12
   8.15999985      -9.94442029E-12
   8.27999973      -1.24443138E-11
   8.39999962      -1.34550192E-11
   8.52000046      -1.22754584E-11
   8.64000034      -8.38699075E-12
   8.76000023      -1.61150509E-12
   8.88000011       7.74469638E-12
   9.00000000       1.87929464E-11
   9.11999989       3.00429161E-11
   9.23999977       3.94897552E-11
   9.35999966       4.48239536E-11
   9.47999954       4.37622230E-11
   9.60000038       3.44747668E-11
   9.72000027       1.60592633E-11
   9.84000015      -1.10110974E-11
   9.96000004      -4.45547488E-11
   10.0799999      -8.05582615E-11
   10.1999998      -1.13345673E-10
   10.3199997      -1.36095829E-10
   10.4399996      -1.41716319E-10
   10.5600004      -1.24022126E-10
   10.6800003      -7.90987137E-11
   10.8000002      -6.66340984E-12
   10.9200001       8.88129778E-11
   11.0400000       1.97486333E-10
   11.1599998       3.04270498E-10
   11.2799997       3.89907995E-10
   11.3999996       4.33062225E-10
   11.5200005       4.13362788E-10
   11.6400003       3.15158261E-10
   11.7600002       1.31546662E-10
   11.8800001      -1.31906125E-10
   12.0000000      -4.54457943E-10
   12.1199999      -7.99209754E-10
   12.2399998      -1.11448550E-09
   12.3599997      -1.33799261E-09
   12.4799995      -1.40385858E-09
   12.6000004      -1.25220911E-09
   12.7200003      -8.40476466E-10
   12.8400002      -1.55150934E-10
   12.9600000       7.77707954E-10
   13.0799999       1.88512672E-09
   13.1999998       3.04497982E-09
   13.3199997       4.09053058E-09
   13.4399996       4.82286033E-09
   13.5600004       5.03142461E-09
   13.6800003       4.52187843E-09
   13.8000002       3.14908366E-09
   13.9200001       8.51977378E-10
   14.0400000      -2.31406183E-09
   14.1599998      -6.15242080E-09
   14.2799997      -1.03132809E-08
   14.3999996      -1.42992471E-08
   14.5200005      -1.74921659E-08
   14.6400003      -1.92028100E-08
   14.7600002      -1.87425915E-08
   14.8800001      -1.55135176E-08
   15.0000000      -9.10948650E-09
   15.1199999       5.80829662E-10
   15.2399998       1.32816300E-08
   15.3599997       2.82615797E-08
   15.4799995       4.43028867E-08
   15.6000004       5.97199232E-08
   15.7200003       7.24362934E-08
   15.8400002       8.01247495E-08
   15.9600000       8.04081424E-08
   16.0799999       7.11129289E-08
   16.2000008       5.05593114E-08
   16.3199997       1.78653625E-08
   16.4400005      -2.67634395E-08
   16.5599995      -8.17916685E-08
   16.6800003      -1.44192214E-07
   16.7999992      -2.09397868E-07
   16.9200001      -2.71393446E-07
   17.0400009      -3.22968020E-07
   17.1599998      -3.56135729E-07
   17.2800007      -3.62719931E-07
   17.3999996      -3.35081012E-07
   17.5200005      -2.66953208E-07
   17.6399994      -1.54340213E-07
   17.7600002       3.59024943E-09
   17.8799992       2.03684067E-07
   18.0000000       4.38123919E-07
   18.1200008       6.93970946E-07
   18.2399998       9.52991286E-07
   18.3600006       1.19182062E-06
   18.4799995       1.38250232E-06
   18.6000004       1.49341338E-06
   18.7199993       1.49056507E-06
   18.8400002       1.33924209E-06
   18.9599991       1.00591251E-06
   19.0799999       4.60320791E-07
   19.2000008      -3.22345642E-07
   19.3199997      -1.35934044E-06
   19.4400005      -2.65842414E-06
   19.5599995      -4.21624372E-06
   19.6800003      -6.01714282E-06
   19.7999992      -8.03251532E-06
   19.9200001      -1.02207678E-05
   20.0400009      -1.25279603E-05
   20.1599998      -1.48891049E-05
   20.2800007      -1.72301334E-05
   20.3999996      -1.94704426E-05
   20.5200005      -2.15259188E-05
   20.6399994      -2.33123210E-05
   20.7600002      -2.47488642E-05
   20.8799992      -2.57618067E-05
   21.0000000      -2.62879057E-05
   21.1200008      -2.62775065E-05
   21.2399998      -2.56971616E-05
   21.3600006      -2.45315932E-05
   21.4799995      -2.27849196E-05
   21.6000004      -2.04810622E-05
   21.7199993      -1.76633021E-05
   21.8400002      -1.43930074E-05
   21.9599991      -1.07475944E-05
   22.0799999      -6.81778010E-06
   22.2000008      -2.70430428E-06
   22.3199997       1.48576271E-06
   22.4400005       5.64294305E-06
   22.5599995       9.65932759E-06
   22.6800003       1.34324309E-05
   22.7999992       1.68687584E-05
   22.9200001       1.98869475E-05
   23.0400009       2.24203559E-05
   23.1599998       2.44189978E-05
   23.2800007       2.58508007E-05
   23.3999996       2.67021205E-05
   23.5200005       2.69775446E-05
   23.6399994       2.66990355E-05
   23.7600002       2.59044537E-05
   23.8799992       2.46455675E-05
   24.0000000       2.29856614E-05
   24.1200008       2.09968202E-05
   24.2399998       1.87570658E-05
   24.3600006       1.63474106E-05
   24.4799995       1.38489668E-05
   24.6000004       1.13402175E-05
   24.7199993       8.89453167E-06
   24.8400002       6.57798682E-06
   24.9599991       4.44758871E-06
   25.0799999       2.54989573E-06
   25.2000008       9.20090997E-07
   25.3199997      -4.18494778E-07
   25.4400005      -1.45441993E-06
   25.5599995      -2.18774881E-06
   25.6800003      -2.62928302E-06
   25.7999992      -2.79945721E-06
   25.9200001      -2.72695047E-06
   26.0400009      -2.44707553E-06
   26.1599998      -2.00001637E-06
   26.2800007      -1.42897875E-06
   26.3999996      -7.78325727E-07
   26.5200005      -9.17672196E-08
   26.6399994       5.89334206E-07
   26.7600002       1.22747986E-06
   26.8799992       1.79032736E-06
   27.0000000       2.25171311E-06
   27.1200008       2.59238004E-06
   27.2399998       2.80038739E-06
   27.3600006       2.87120224E-06
   27.4799995       2.80747577E-06
   27.6000004       2.61852597E-06
   27.7199993       2.31956005E-06
   27.8400002       1.93066921E-06
   27.9599991       1.47565413E-06
   28.0799999       9.80730078E-07
   28.2000008       4.73172264E-07
   28.3199997      -2.00394599E-08
   28.4400005      -4.73517872E-07
   28.5599995      -8.64652577E-07
   28.6800003      -1.17463208E-06
   28.7999992      -1.38926248E-06
   28.9200001      -1.49955133E-06
   29.0400009      -1.50203516E-06
   29.1599998      -1.39883900E-06
   29.2800007      -1.19747199E-06
   29.3999996      -9.10369863E-07
   29.5200005      -5.54210203E-07
   29.6399994      -1.49032687E-07
   29.7600002       2.82791461E-07
   29.8799992       7.17691989E-07
   30.0000000       1.13207989E-06
   30.1200008       1.50351991E-06
   30.2399998       1.81183850E-06
   30.3600006       2.04011576E-06
   30.4799995       2.17551360E-06
   30.6000004       2.20990205E-06
   30.7199993       2.14025295E-06
   30.8400002       1.96878545E-06
   30.9599991       1.70285421E-06
   31.0799999       1.35459084E-06
   31.2000008       9.40310713E-07
   31.3199997       4.79720882E-07
   31.4400005      -5.03841013E-09
   31.5599995      -4.90469631E-07
   31.6800003      -9.52861626E-07
   31.7999992      -1.36944698E-06
   31.9200001      -1.71952070E-06
   32.0400009      -1.98546786E-06
   32.1599998      -2.15365071E-06
   32.2799988      -2.21512073E-06
   32.4000015      -2.16611352E-06
   32.5200005      -2.00830823E-06
   32.6399994      -1.74883553E-06
   32.7599983      -1.40002635E-06
   32.8800011      -9.78913477E-07
   33.0000000      -5.06496747E-07
   33.1199989      -6.80616008E-09
   33.2400017       4.94204755E-07
   33.3600006       9.69885036E-07
   33.4799995       1.39417864E-06
   33.5999985       1.74292290E-06
   33.7200012       1.99509213E-06
   33.8400002       2.13391831E-06
   33.9599991       2.14783631E-06
   34.0800018       2.03119021E-06
   34.2000008       1.78466348E-06
   34.3199997       1.41539454E-06
   34.4399986       9.36764195E-07
   34.5600014       3.67851044E-07
   34.6800003      -2.67425349E-07
   34.7999992      -9.41438543E-07
   34.9199982      -1.62421168E-06
   35.0400009      -2.28492786E-06
   35.1599998      -2.89351419E-06
   35.2799988      -3.42221051E-06
   35.4000015      -3.84703253E-06
   35.5200005      -4.14904480E-06
   35.6399994      -4.31536091E-06
   35.7599983      -4.33981495E-06
   35.8800011      -4.22324865E-06
   36.0000000      -3.97340955E-06
   36.1199989      -3.60443983E-06
   36.2400017      -3.13600685E-06
   36.3600006      -2.59210947E-06
   36.4799995      -1.99964620E-06
   36.5999985      -1.38682697E-06
   36.7200012      -7.81536357E-07
   36.8400002      -2.09748919E-07
   36.9599991       3.05895782E-07
   37.0800018       7.47269269E-07
   37.2000008       1.10160397E-06
   37.3199997       1.36196513E-06
   37.4399986       1.52731695E-06
   37.5600014       1.60218860E-06
   37.6800003       1.59596925E-06
   37.7999992       1.52189261E-06
   37.9199982       1.39579095E-06
   38.0400009       1.23471898E-06
   38.1599998       1.05555284E-06
   38.2799988       8.73671979E-07
   38.4000015       7.01828014E-07
   38.5200005       5.49281481E-07
   38.6399994       4.21273086E-07
   38.7599983       3.18863357E-07
   38.8800011       2.39147738E-07
   39.0000000       1.75821214E-07
   39.1199989       1.20040653E-07
   39.2400017       6.15071301E-08
   39.3600006      -1.03266933E-08
   39.4799995      -1.05027787E-07
   39.5999985      -2.30039092E-07
   39.7200012      -3.89718480E-07
   39.8400002      -5.84643999E-07
   39.9599991      -8.11245457E-07
   40.0800018      -1.06179721E-06
   40.2000008      -1.32477601E-06
   40.3199997      -1.58555883E-06
   40.4399986      -1.82740882E-06
   40.5600014      -2.03267223E-06
   40.6800003      -2.18409582E-06
   40.7999992      -2.26615998E-06
   40.9199982      -2.26632801E-06
   41.0400009      -2.17611159E-06
   41.1599998      -1.99187207E-06
   41.2799988      -1.71529484E-06
   41.4000015      -1.35350001E-06
   41.5200005      -9.18777118E-07
   41.6399994      -4.27963641E-07
   41.7599983       9.84914124E-08
   41.8800011       6.37712958E-07
   42.0000000       1.16575188E-06
   42.1199989       1.65900951E-06
   42.2400017       2.09563768E-06
   42.3600006       2.45681804E-06
   42.4799995       2.72783564E-06
   42.5999985       2.89887566E-06
   42.7200012       2.96549661E-06
   42.8400002       2.92874893E-06
   42.9599991       2.79494111E-06
   43.0800018       2.57507531E-06
   43.2000008       2.28399767E-06
   43.3199997       1.93933010E-06
   43.4399986       1.56025806E-06
   43.5600014       1.16626745E-06
   43.6800003       7.75915396E-07
   43.7999992       4.05723966E-07
   43.9199982       6.92695821E-08
   44.0400009      -2.23471773E-07
   44.1599998      -4.66484323E-07
   44.2799988      -6.57760779E-07
   44.4000015      -7.99047939E-07
   44.5200005      -8.95320341E-07
   44.6399994      -9.54034249E-07
   44.7599983      -9.84231065E-07
   44.8800011      -9.95569053E-07
   45.0000000      -9.97368488E-07
   45.1199989      -9.97750021E-07
   45.2400017      -1.00293732E-06
   45.3600006      -1.01678108E-06
   45.4799995      -1.04053640E-06
   45.5999985      -1.07290793E-06
   45.7200012      -1.11034501E-06
   45.8400002      -1.14755414E-06
   45.9599991      -1.17817012E-06
   46.0800018      -1.19551373E-06
   46.2000008      -1.19336107E-06
   46.3199997      -1.16664307E-06
   46.4399986      -1.11200882E-06
   46.5600014      -1.02819388E-06
   46.6800003      -9.16164538E-07
   46.7999992      -7.79023310E-07
   46.9199982      -6.21693175E-07
   47.0400009      -4.50417275E-07
   47.1599998      -2.72132070E-07
   47.2799988      -9.37823259E-08
   47.4000015       7.83461971E-08
   47.5200005       2.39203644E-07
   47.6399994       3.85401705E-07
   47.7599983       5.15441911E-07
   47.8800011       6.29723900E-07
   48.0000000       7.30334136E-07
   48.1199989       8.20638661E-07
   48.2400017       9.04726505E-07
   48.3600006       9.86763212E-07
   48.4799995       1.07032565E-06
   48.5999985       1.15778926E-06
   48.7200012       1.24983433E-06
   48.8400002       1.34512379E-06
   48.9599991       1.44018748E-06
   49.0800018       1.52952794E-06
   49.2000008       1.60593947E-06
   49.3199997       1.66101222E-06
   49.4399986       1.68577765E-06
   49.5600014       1.67143912E-06
   49.6800003       1.61012588E-06
   49.7999992       1.49560992E-06
   49.9199982       1.32392881E-06
   50.0400009       1.09387042E-06
   50.1599998       8.07286881E-07
   50.2799988       4.69219344E-07
   50.4000015       8.78305144E-08
   50.5200005      -3.25846258E-07
   50.6399994      -7.58321733E-07
   50.7599983      -1.19420235E-06
   50.8800011      -1.61684625E-06
   51.0000000      -2.00909176E-06
   51.1199989      -2.35402467E-06
   51.2400017      -2.63575066E-06
   51.3600006      -2.84014732E-06
   51.4799995      -2.95556265E-06
   51.5999985      -2.97343627E-06
   51.7200012      -2.88881665E-06
   51.8400002      -2.70074884E-06
   51.9599991      -2.41251018E-06
   52.0800018      -2.03167087E-06
   52.2000008      -1.56996578E-06
   52.3199997      -1.04296657E-06
   52.4399986      -4.69553157E-07
   52.5600014       1.28803592E-07
   52.6800003       7.28925045E-07
   52.7999992       1.30693854E-06
   52.9199982       1.83937254E-06
   53.0400009       2.30427713E-06
   53.1599998       2.68230497E-06
   53.2799988       2.95768791E-06
   53.4000015       3.11904751E-06
   53.5200005       3.15998454E-06
   53.6399994       3.07940832E-06
   53.7599983       2.88158503E-06
   53.8800011       2.57589727E-06
   54.0000000       2.17633374E-06
   54.1199989       1.70074691E-06
   54.2400017       1.16992339E-06
   54.3600006       6.06534911E-07
   54.4799995       3.40337607E-08
   54.5999985      -5.24437553E-07
   54.7200012      -1.04706271E-06
   54.8400002      -1.51424206E-06
   54.9599991      -1.90932064E-06
   55.0800018      -2.21913410E-06
   55.2000008      -2.43436375E-06
   55.3199997      -2.54971405E-06
   55.4399986      -2.56392559E-06
   55.5600014      -2.47965386E-06
   55.6800003      -2.30323553E-06
   55.7999992      -2.04436833E-06
   55.9199982      -1.71572026E-06
   56.0400009      -1.33248034E-06
   56.1599998      -9.11850861E-07
   56.2799988      -4.72480735E-07
   56.4000015      -3.38306663E-08
   56.5200005       3.84530438E-07
   56.6399994       7.63697301E-07
   56.7599983       1.08625511E-06
   56.8800011       1.33713479E-06
   57.0000000       1.50445771E-06
   57.1199989       1.58031469E-06
   57.2400017       1.56141880E-06
   57.3600006       1.44956516E-06
   57.4799995       1.25183681E-06
   57.5999985       9.80502364E-07
   57.7200012       6.52579160E-07
   57.8400002       2.89051769E-07
   57.9599991      -8.62309619E-08
   58.0800018      -4.47926737E-07
   58.2000008      -7.70758845E-07
   58.3199997      -1.03116042E-06
   58.4399986      -1.20888717E-06
   58.5600014      -1.28847796E-06
   58.6800003      -1.26044756E-06
   58.7999992      -1.12211683E-06
   58.9199982      -8.78006972E-07
   59.0400009      -5.39762937E-07
   59.1599998      -1.25602185E-07
   59.2799988       3.40673495E-07
   59.4000015       8.31037028E-07
   59.5200005       1.31487081E-06
   59.6399994       1.76076549E-06
   59.7599983       2.13836415E-06
   59.8800011       2.42013471E-06
   60.0000000       2.58296473E-06
   60.1199989       2.60949355E-06
   60.2400017       2.48911351E-06
   60.3600006       2.21860455E-06
   60.4799995       1.80238487E-06
   60.5999985       1.25238523E-06
   60.7200012       5.87569843E-07
   60.8400002      -1.66854164E-07
   60.9599991      -9.80498612E-07
   61.0800018      -1.81907171E-06
   61.2000008      -2.64582127E-06
   61.3199997      -3.42309204E-06
   61.4399986      -4.11394194E-06
   61.5600014      -4.68377402E-06
   61.6800003      -5.10192149E-06
   61.7999992      -5.34313813E-06
   61.9199982      -5.38893801E-06
   62.0400009      -5.22870823E-06
   62.1599998      -4.86055660E-06
   62.2799988      -4.29180909E-06
   62.4000015      -3.53911719E-06
   62.5200005      -2.62813569E-06
   62.6399994      -1.59273077E-06
   62.7599983      -4.73735554E-07
   62.8800011       6.82735163E-07
   63.0000000       1.82734618E-06
   63.1199989       2.90989442E-06
   63.2400017       3.88183980E-06
   63.3600006       4.69887163E-06
   63.4799995       5.32336162E-06
   63.5999985       5.72654380E-06
   63.7200012       5.89027104E-06
   63.8400002       5.80821916E-06
   63.9599991       5.48643584E-06
   64.0800018       4.94317646E-06
   64.1999969       4.20801507E-06
   64.3199997       3.32026389E-06
   64.4400024       2.32679508E-06
   64.5599976       1.27938802E-06
   64.6800003       2.31771594E-07
   64.8000031      -7.63452363E-07
   64.9199982      -1.65780602E-06
   65.0400009      -2.40966051E-06
   65.1600037      -2.98651480E-06
   65.2799988      -3.36668950E-06
   65.4000015      -3.54032795E-06
   65.5199966      -3.50965774E-06
   65.6399994      -3.28850456E-06
   65.7600021      -2.90110279E-06
   65.8799973      -2.38029543E-06
   66.0000000      -1.76524668E-06
   66.1200027      -1.09882455E-06
   66.2399979      -4.24824520E-07
   66.3600006       2.14787946E-07
   66.4800034       7.82441930E-07
   66.5999985       1.24717610E-06
   66.7200012       1.58637215E-06
   66.8399963       1.78690766E-06
   66.9599991       1.84566682E-06
   67.0800018       1.76939068E-06
   67.1999969       1.57388797E-06
   67.3199997       1.28266947E-06
   67.4400024       9.25106008E-07
   67.5599976       5.34233720E-07
   67.6800003       1.44358765E-07
   67.8000031      -2.11379955E-07
   67.9199982      -5.03327499E-07
   68.0400009      -7.07356264E-07
   68.1600037      -8.06502101E-07
   68.2799988      -7.92087462E-07
   68.4000015      -6.64259460E-07
   68.5199966      -4.31912270E-07
   68.6399994      -1.12003832E-07
   68.7600021       2.71682893E-07
   68.8799973       6.90244462E-07
   69.0000000       1.11170868E-06
   69.1200027       1.50328981E-06
   69.2399979       1.83369150E-06
   69.3600006       2.07529774E-06
   69.4800034       2.20610264E-06
   69.5999985       2.21124719E-06
   69.7200012       2.08405527E-06
   69.8399963       1.82650592E-06
   69.9599991       1.44910996E-06
   70.0800018       9.70205974E-07
   70.1999969       4.14732568E-07
   70.3199997      -1.87433415E-07
   70.4400024      -8.03446142E-07
   70.5599976      -1.39962867E-06
   70.6800003      -1.94362315E-06
   70.8000031      -2.40640588E-06
   70.9199982      -2.76402875E-06
   71.0400009      -2.99897260E-06
   71.1600037      -3.10103178E-06
   71.2799988      -3.06768720E-06
   71.4000015      -2.90395610E-06
   71.5199966      -2.62176036E-06
   71.6399994      -2.23887582E-06
   71.7600021      -1.77755942E-06
   71.8799973      -1.26297016E-06
   72.0000000      -7.21508627E-07
   72.1200027      -1.79194814E-07
   72.2399979       3.39800494E-07
   72.3600006       8.14379575E-07
   72.4800034       1.22742892E-06
   72.5999985       1.56638043E-06
   72.7200012       1.82341182E-06