  -30.0000000       0.00000000    
  -29.8799992       0.00000000    
  -29.7600002       0.00000000    
  -29.6399994       0.00000000    
  -29.5200005       0.00000000    
  -29.3999996       0.00000000    
  -29.2800007       0.00000000    
  -29.1599998       0.00000000    
  -29.0400009       0.00000000    
  -28.9200001       0.00000000    
  -28.7999992      -1.82168800E-44
  -28.6800003       3.20032467E-38
  -28.5599995       3.48186010E-37
  -28.4400005       1.20685824E-36
  -28.3199997      -3.54516440E-36
  -28.2000008      -5.91470129E-35
  -28.0799999      -3.34957896E-34
  -27.9599991      -1.20162430E-33
  -27.8400002      -2.91615169E-33
  -27.7199993      -4.00162815E-33
  -27.6000004       2.54680292E-33
  -27.4799995       3.35562465E-32
  -27.3600006       1.11922367E-31
  -27.2399998       2.37648071E-31
  -27.1200008       3.19112415E-31
  -27.0000000       8.66102710E-32
  -26.8799992      -9.06056940E-31
  -26.7600002      -2.99436779E-30
  -26.6399994      -5.66332490E-30
  -26.5200005      -6.53202763E-30
  -26.3999996      -9.72999086E-31
  -26.2800007       1.59388352E-29
  -26.1599998       4.35869965E-29
  -26.0400009       6.69001558E-29
  -25.9200001       5.03563002E-29
  -25.7999992      -5.31037265E-29
  -25.6800003      -2.65158111E-28
  -25.5599995      -5.15984606E-28
  -25.4400005      -5.77569587E-28
  -25.3199997      -6.56611027E-29
  -25.2000008       1.39546076E-27
  -25.0799999       3.78423394E-27
  -24.9599991       6.13610602E-27
  -24.8400002       6.12579382E-27
  -24.7199993       2.85023982E-28
  -24.6000004      -1.45792527E-26
  -24.4799995      -3.85075333E-26
  -24.3600006      -6.45699476E-26
  -24.2399998      -7.57501404E-26
  -24.1200008      -4.52233866E-26
  -24.0000000       5.69245357E-26
  -23.8799992       2.48399184E-25
  -23.7600002       5.11092923E-25
  -23.6399994       7.63262615E-25
  -23.5200005       8.36717546E-25
  -23.3999996       4.75088423E-25
  -23.2800007      -6.21855354E-25
  -23.1599998      -2.67414341E-24
  -23.0400009      -5.58506027E-24
  -22.9200001      -8.59062584E-24
  -22.7999992      -9.88287624E-24
  -22.6800003      -6.45648572E-24
  -22.5599995       5.37527218E-24
  -22.4400005       2.82513020E-23
  -22.3199997       6.05130215E-23
  -22.2000008       9.19538112E-23
  -22.0799999       1.00568400E-22
  -21.9599991       5.40137669E-23
  -21.8400002      -7.97026373E-23
  -21.7199993      -3.09593549E-22
  -21.6000004      -5.90311406E-22
  -21.4799995      -7.95066325E-22
  -21.3600006      -7.16351386E-22
  -21.2399998      -1.21885611E-22
  -21.1200008       1.11867938E-21
  -21.0000000       2.85463321E-21
  -20.8799992       4.49305001E-21
  -20.7600002       4.97611419E-21
  -20.6399994       3.02982768E-21
  -20.5200005      -2.24765692E-21
  -20.3999996      -1.05504908E-20
  -20.2800007      -1.96010269E-20
  -20.1599998      -2.49718347E-20
  -20.0400009      -2.10281202E-20
  -19.9200001      -3.23141782E-21
  -19.7999992       2.85944964E-20
  -19.6800003       6.72611317E-20
  -19.5599995       9.73383106E-20
  -19.4400005       9.82138489E-20
  -19.3199997       5.17776128E-20
  -19.2000008      -4.67532919E-20
  -19.0799999      -1.78915328E-19
  -18.9599991      -2.99743448E-19
  -18.8400002      -3.46377746E-19
  -18.7199993      -2.60041028E-19
  -18.6000004      -1.65688461E-20
  -18.4799995       3.46079831E-19
  -18.3600006       7.18586636E-19
  -18.2399998       9.41792690E-19
  -18.1200008       8.60906989E-19
  -18.0000000       3.98427310E-19
  -17.8799992      -3.83114284E-19
  -17.7600002      -1.26299861E-18
  -17.6399994      -1.91276170E-18
  -17.5200005      -2.01255980E-18
  -17.3999996      -1.39630952E-18
  -17.2800007      -1.62067326E-19
  -17.1599998       1.31711741E-18
  -17.0400009       2.51347721E-18
  -16.9200001       2.96678439E-18
  -16.7999992       2.51567648E-18
  -16.6800003       1.41326568E-18
  -16.5599995       2.31096324E-19
  -16.4400005      -4.50629334E-19
  -16.3199997      -4.41398929E-19
  -16.2000008      -2.03962977E-19
  -16.0799999      -7.58913190E-19
  -15.9600000      -3.13984009E-18
  -15.8400002      -7.55055923E-18
  -15.7200003      -1.26269749E-17
  -15.6000004      -1.53244506E-17
  -15.4799995      -1.18156580E-17
  -15.3599997       6.31265780E-19
  -15.2399998       2.13986132E-17
  -15.1199999       4.49735485E-17
  -15.0000000       6.12844947E-17
  -14.8800001       5.85920417E-17
  -14.7600002       2.85561640E-17
  -14.6400003      -2.81608776E-17
  -14.5200005      -9.83040763E-17
  -14.3999996      -1.56970491E-16
  -14.2799997      -1.74344752E-16
  -14.1599998      -1.27175208E-16
  -14.0400000      -1.13668935E-17
  -13.9200001       1.49636695E-16
  -13.8000002       3.05782256E-16
  -13.6800003       3.93115720E-16
  -13.5600004       3.56230664E-16
  -13.4399996       1.73547720E-16
  -13.3199997      -1.24606898E-16
  -13.1999998      -4.54682998E-16
  -13.0799999      -7.00132817E-16
  -12.9600000      -7.49936025E-16
  -12.8400002      -5.43637022E-16
  -12.7200003      -1.05671800E-16
  -12.6000004       4.47492059E-16
  -12.4799995       9.35904068E-16
  -12.3599997       1.17556018E-15
  -12.2399998       1.04989501E-15
  -12.1199999       5.65751993E-16
  -12.0000000      -1.32409527E-16
  -11.8800001      -8.03346694E-16
  -11.7600002      -1.19693633E-15
  -11.6400003      -1.15923140E-15
  -11.5200005      -7.11596085E-16
  -11.3999996      -6.40441678E-17
  -11.2799997       4.55653857E-16
  -11.1599998       5.41509910E-16
  -11.0400000       6.77672878E-17
  -10.9200001      -8.02759488E-16
  -10.8000002      -1.62226905E-15
  -10.6800003      -1.79917442E-15
  -10.5600004      -8.47216648E-16
  -10.4399996       1.34192211E-15
  -10.3199997       4.31723969E-15
  -10.1999998       7.08090321E-15
  -10.0799999       8.33914863E-15
  -9.96000004       6.94711478E-15
  -9.84000015       2.41396597E-15
  -9.72000027      -4.71829751E-15
  -9.60000038      -1.27976692E-14
  -9.47999954      -1.93798208E-14
  -9.35999966      -2.19014057E-14
  -9.23999977      -1.85305974E-14
  -9.11999989      -8.92287038E-15
  -9.00000000       5.39625167E-15
  -8.88000011       2.12057985E-14
  -8.76000023       3.43343043E-14
  -8.64000034       4.07945840E-14
  -8.52000046       3.79792633E-14
  -8.39999962       2.55415213E-14
  -8.27999973       5.66373620E-15
  -8.15999985      -1.74006893E-14
  -8.03999996      -3.83990054E-14
  -7.92000008      -5.24542974E-14
  -7.80000019      -5.63361613E-14
  -7.67999983      -4.92529432E-14
  -7.55999994      -3.29455430E-14
  -7.44000006      -1.10836658E-14
  -7.32000017       1.18212613E-14
  -7.19999981       3.16351762E-14
  -7.07999992       4.55807335E-14
  -6.96000004       5.27016209E-14
  -6.84000015       5.37122599E-14
  -6.71999979       5.03295559E-14
  -6.59999990       4.43399522E-14
  -6.48000002       3.67295170E-14
  -6.36000013       2.71809823E-14
  -6.23999977       1.41319324E-14
  -6.11999989      -4.57603197E-15
  -6.00000000      -3.06042457E-14
  -5.88000011      -6.38754593E-14
  -5.76000023      -1.01562225E-13
  -5.63999987      -1.37677725E-13
  -5.51999998      -1.63538020E-13
  -5.40000010      -1.69175099E-13
  -5.28000021      -1.45539817E-13
  -5.15999985      -8.70946585E-14
  -5.03999996       5.77510367E-15
  -4.92000008       1.25157548E-13
  -4.80000019       2.55347745E-13
  -4.67999983       3.74220023E-13
  -4.55999994       4.56225389E-13
  -4.44000006       4.76672629E-13
  -4.32000017       4.16679766E-13
  -4.19999981       2.68008326E-13
  -4.07999992       3.69274110E-14
  -3.96000004      -2.53719978E-13
  -3.83999991      -5.64964579E-13
  -3.72000003      -8.45184870E-13
  -3.59999990      -1.03677223E-12
  -3.48000002      -1.08562237E-12
  -3.35999990      -9.52378259E-13
  -3.24000001      -6.23565273E-13
  -3.11999989      -1.20132609E-13
  -3.00000000       4.99274613E-13
  -2.88000011       1.14245289E-12
  -2.75999999       1.69599209E-12
  -2.64000010       2.04467931E-12
  -2.51999998       2.09465518E-12
  -2.40000010       1.79539738E-12
  -2.27999997       1.15511550E-12
  -2.16000009       2.45139033E-13
  -2.03999996      -8.08704232E-13
  -1.91999996      -1.84651903E-12
  -1.79999995      -2.70230041E-12
  -1.67999995      -3.23317154E-12
  -1.55999994      -3.34343078E-12
  -1.44000006      -2.99855366E-12
  -1.32000005      -2.22719087E-12
  -1.20000005      -1.11240813E-12
  -1.08000004       2.24114306E-13
 -0.959999979       1.64019698E-12
 -0.839999974       2.98947260E-12
 -0.720000029       4.13355244E-12
 -0.600000024       4.94985520E-12
 -0.479999989       5.33656149E-12
 -0.360000014       5.21681223E-12
 -0.239999995       4.54384013E-12
 -0.119999997       3.30761894E-12
  -1.11022302E-15   1.54233972E-12
  0.119999997      -6.66871831E-13
  0.239999995      -3.17993396E-12
  0.360000014      -5.80227793E-12
  0.479999989      -8.29121927E-12
  0.600000024      -1.03691786E-11
  0.720000029      -1.17441595E-11
  0.839999974      -1.21371741E-11
  0.959999979      -1.13151051E-11
   1.08000004      -9.12601418E-12
   1.20000005      -5.53230161E-12
   1.32000005      -6.36149824E-13
   1.44000006       5.30812243E-12
   1.55999994       1.18984709E-11
   1.67999995       1.86068348E-11
   1.79999995       2.48149105E-11
   1.91999996       2.98575019E-11
   2.03999996       3.30649987E-11
   2.16000009       3.37968507E-11
   2.27999997       3.14603517E-11
   2.40000010       2.55130882E-11
   2.51999998       1.54519227E-11
   2.64000010       7.95781410E-13
   2.75999999      -1.89284838E-11
   2.88000011      -4.41870290E-11
   3.00000000      -7.54191709E-11
   3.11999989      -1.12993941E-10
   3.24000001      -1.57146476E-10
   3.35999990      -2.07905040E-10
   3.48000002      -2.65025363E-10
   3.59999990      -3.27952304E-10
   3.72000003      -3.95826483E-10
   3.83999991      -4.67546835E-10
   3.96000004      -5.41887923E-10
   4.07999992      -6.17657037E-10
   4.19999981      -6.93861801E-10
   4.32000017      -7.69855679E-10
   4.44000006      -8.45427228E-10
   4.55999994      -9.20813759E-10
   4.67999983      -9.96635441E-10
   4.80000019      -1.07376763E-09
   4.92000008      -1.15318533E-09
   5.03999996      -1.23581922E-09
   5.15999985      -1.32246247E-09
   5.28000021      -1.41374834E-09
   5.40000010      -1.51020196E-09
   5.51999998      -1.61235114E-09
   5.63999987      -1.72086168E-09
   5.76000023      -1.83666538E-09
   5.88000011      -1.96104666E-09
   6.00000000      -2.09566631E-09
   6.11999989      -2.24251484E-09
   6.23999977      -2.40380094E-09
   6.36000013      -2.58178368E-09
   6.48000002      -2.77857359E-09
   6.59999990      -2.99592284E-09
   6.71999979      -3.23503380E-09
   6.84000015      -3.49641738E-09
   6.96000004      -3.77983511E-09
   7.07999992      -4.08435108E-09
   7.19999981      -4.40851089E-09
   7.32000017      -4.75064432E-09
   7.44000006      -5.10925080E-09
   7.55999994      -5.48341772E-09
   7.67999983      -5.87319038E-09
   7.80000019      -6.27981045E-09
   7.92000008      -6.70577815E-09
   8.03999996      -7.15470083E-09
   8.15999985      -7.63096697E-09
   8.27999973      -8.13930967E-09
   8.39999962      -8.68436079E-09
   8.52000046      -9.27030808E-09
   8.64000034      -9.90071225E-09
   8.76000023      -1.05785398E-08
   8.88000011      -1.13063692E-08
   9.00000000      -1.20866961E-08
   9.11999989      -1.29222366E-08
   9.23999977      -1.38161234E-08
   9.35999966      -1.47719366E-08
   9.47999954      -1.57935460E-08
   9.60000038      -1.68848473E-08
   9.72000027      -1.80494659E-08
   9.84000015      -1.92905674E-08
   9.96000004      -2.06108783E-08
   10.0799999      -2.20129195E-08
   10.1999998      -2.34994602E-08
   10.3199997      -2.50740211E-08
   10.4399996      -2.67413078E-08
   10.5600004      -2.85074133E-08
   10.6800003      -3.03796774E-08
   10.8000002      -3.23662412E-08
   10.9200001      -3.44753666E-08
   11.0400000      -3.67147166E-08
   11.1599998      -3.90908390E-08
   11.2799997      -4.16089314E-08
   11.3999996      -4.42730368E-08
   11.5200005      -4.70865515E-08
   11.6400003      -5.00529467E-08
   11.7600002      -5.31764712E-08
   11.8800001      -5.64626674E-08
   12.0000000      -5.99185697E-08
   12.1199999      -6.35526121E-08
   12.2399998      -6.73743159E-08
   12.3599997      -7.13938775E-08
   12.4799995      -7.56218341E-08
   12.6000004      -8.00688724E-08
   12.7200003      -8.47457287E-08
   12.8400002      -8.96632883E-08
   12.9600000      -9.48326644E-08
   13.0799999      -1.00265282E-07
   13.1999998      -1.05972937E-07
   13.3199997      -1.11967921E-07
   13.4399996      -1.18263110E-07
   13.5600004      -1.24872130E-07
   13.6800003      -1.31809415E-07
   13.8000002      -1.39090218E-07
   13.9200001      -1.46730173E-07
   14.0400000      -1.54744754E-07
   14.1599998      -1.63148542E-07
   14.2799997      -1.71954539E-07
   14.3999996      -1.81173874E-07
   14.5200005      -1.90816053E-07
   14.6400003      -2.00889829E-07
   14.7600002      -2.11404611E-07
   14.8800001      -2.22371966E-07
   15.0000000      -2.33806858E-07
   15.1199999      -2.45727875E-07
   15.2399998      -2.58156945E-07
   15.3599997      -2.71117869E-07
   15.4799995      -2.84634666E-07
   15.6000004      -2.98729702E-07
   15.7200003      -3.13422930E-07
   15.8400002      -3.28731630E-07
   15.9600000      -3.44671406E-07
   16.0799999      -3.61257690E-07
   16.2000008      -3.78507252E-07
   16.3199997      -3.96439020E-07
   16.4400005      -4.15074169E-07
   16.5599995      -4.34435123E-07
   16.6800003      -4.54544022E-07
   16.7999992      -4.75421274E-07
   16.9200001      -4.97084386E-07
   17.0400009      -5.19548280E-07
   17.1599998      -5.42826172E-07
   17.2800007      -5.66931419E-07
   17.3999996      -5.91879143E-07
   17.5200005      -6.17687590E-07
   17.6399994      -6.44378247E-07
   17.7600002      -6.71975101E-07
   17.8799992      -7.00502483E-07
   18.0000000      -7.29983299E-07
   18.1200008      -7.60437388E-07
   18.2399998      -7.91880950E-07
   18.3600006      -8.24326776E-07
   18.4799995      -8.57785722E-07
   18.6000004      -8.92268417E-07
   18.7199993      -9.27787198E-07
   18.8400002      -9.64356445E-07
   18.9599991      -1.00199281E-06
   19.0799999      -1.04071398E-06
   19.2000008      -1.08053769E-06
   19.3199997      -1.12148018E-06
   19.4400005      -1.16355534E-06
   19.5599995      -1.20677510E-06
   19.6800003      -1.25114957E-06
   19.7999992      -1.29668831E-06
   19.9200001      -1.34340087E-06
   20.0400009      -1.39129656E-06
   20.1599998      -1.44038415E-06
   20.2800007      -1.49067034E-06
   20.3999996      -1.54215877E-06
   20.5200005      -1.59484898E-06
   20.6399994      -1.64873677E-06
   20.7600002      -1.70381531E-06
   20.8799992      -1.76007723E-06
   21.0000000      -1.81751591E-06
   21.1200008      -1.87612761E-06
   21.2399998      -1.93590972E-06
   21.3600006      -1.99686087E-06
   21.4799995      -2.05897641E-06
   21.6000004      -2.12224882E-06
   21.7199993      -2.18666378E-06
   21.8400002      -2.25220265E-06
   21.9599991      -2.31884246E-06
   22.0799999      -2.38655980E-06
   22.2000008      -2.45533442E-06
   22.3199997      -2.52514928E-06
   22.4400005      -2.59599278E-06
   22.5599995      -2.66785378E-06
   22.6800003      -2.74072067E-06
   22.7999992      -2.81457528E-06
   22.9200001      -2.88939168E-06
   23.0400009      -2.96513599E-06
   23.1599998      -3.04176774E-06
   23.2800007      -3.11924327E-06
   23.3999996      -3.19752075E-06
   23.5200005      -3.27656130E-06
   23.6399994      -3.35632944E-06
   23.7600002      -3.43679517E-06
   23.8799992      -3.51792778E-06
   24.0000000      -3.59969295E-06
   24.1200008      -3.68204996E-06
   24.2399998      -3.76495245E-06
   24.3600006      -3.84834675E-06
   24.4799995      -3.93217715E-06
   24.6000004      -4.01638681E-06
   24.7199993      -4.10092116E-06
   24.8400002      -4.18572927E-06
   24.9599991      -4.27076111E-06
   25.0799999      -4.35596758E-06
   25.2000008      -4.44129910E-06
   25.3199997      -4.52670702E-06
   25.4400005      -4.61214131E-06
   25.5599995      -4.69755469E-06
   25.6800003      -4.78290303E-06
   25.7999992      -4.86814542E-06
   25.9200001      -4.95324412E-06
   26.0400009      -5.03816045E-06
   26.1599998      -5.12285669E-06
   26.2800007      -5.20728781E-06
   26.3999996      -5.29140334E-06
   26.5200005      -5.37514870E-06
   26.6399994      -5.45846569E-06
   26.7600002      -5.54129656E-06
   26.8799992      -5.62358719E-06
   27.0000000      -5.70528891E-06
   27.1200008      -5.78636082E-06
   27.2399998      -5.86676560E-06
   27.3600006      -5.94647145E-06
   27.4799995      -6.02544196E-06
   27.6000004      -6.10363986E-06
   27.7199993      -6.18102695E-06
   27.8400002      -6.25756547E-06
   27.9599991      -6.33322543E-06
   28.0799999      -6.40798407E-06
   28.2000008      -6.48183186E-06
   28.3199997      -6.55476833E-06
   28.4400005      -6.62680122E-06
   28.5599995      -6.69794326E-06
   28.6800003      -6.76820673E-06
   28.7999992      -6.83760209E-06
   28.9200001      -6.90614115E-06
   29.0400009      -6.97383666E-06
   29.1599998      -7.04071135E-06
   29.2800007      -7.10680160E-06
   29.3999996      -7.17216017E-06
   29.5200005      -7.23685662E-06
   29.6399994      -7.30096963E-06
   29.7600002      -7.36458105E-06
   29.8799992      -7.42776820E-06
   30.0000000      -7.49059882E-06
   30.1200008      -7.55313158E-06
   30.2399998      -7.61541878E-06
   30.3600006      -7.67751408E-06
   30.4799995      -7.73947977E-06
   30.6000004      -7.80139544E-06
   30.7199993      -7.86336477E-06
   30.8400002      -7.92550964E-06
   30.9599991      -7.98797646E-06
   31.0799999      -8.05092532E-06
   31.2000008      -8.11452719E-06
   31.3199997      -8.17895216E-06
   31.4400005      -8.24437666E-06
   31.5599995      -8.31097714E-06
   31.6800003      -8.37893003E-06
   31.7999992      -8.44842180E-06
   31.9200001      -8.51964523E-06
   32.0400009      -8.59280590E-06
   32.1599998      -8.66812206E-06
   32.2799988      -8.74582929E-06
   32.4000015      -8.82617314E-06
   32.5200005      -8.90941101E-06
   32.6399994      -8.99581482E-06
   32.7599983      -9.08566108E-06
   32.8800011      -9.17923171E-06
   33.0000000      -9.27680685E-06
   33.1199989      -9.37866935E-06
   33.2400017      -9.48509296E-06
   33.3600006      -9.59635418E-06
   33.4799995      -9.71273039E-06
   33.5999985      -9.83450354E-06
   33.7200012      -9.96197286E-06
   33.8400002      -1.00954539E-05
   33.9599991      -1.02352869E-05
   34.0800018      -1.03818284E-05
   34.2000008      -1.05354529E-05
   34.3199997      -1.06965463E-05
   34.4399986      -1.08654913E-05
   34.5600014      -1.10426727E-05
   34.6800003      -1.12284688E-05
   34.7999992      -1.14232553E-05
   34.9199982      -1.16274114E-05
   35.0400009      -1.18413318E-05
   35.1599998      -1.20654249E-05
   35.2799988      -1.23001209E-05
   35.4000015      -1.25458664E-05
   35.5200005      -1.28031197E-05
   35.6399994      -1.30723429E-05
   35.7599983      -1.33539934E-05
   35.8800011      -1.36485214E-05
   36.0000000      -1.39563681E-05
   36.1199989      -1.42779672E-05
   36.2400017      -1.46137527E-05
   36.3600006      -1.49641592E-05
   36.4799995      -1.53296296E-05
   36.5999985      -1.57106133E-05
   36.7200012      -1.61075714E-05
   36.8400002      -1.65209676E-05
   36.9599991      -1.69512714E-05
   37.0800018      -1.73989429E-05
   37.2000008      -1.78644441E-05
   37.3199997      -1.83482261E-05
   37.4399986      -1.88507347E-05
   37.5600014      -1.93724063E-05
   37.6800003      -1.99136757E-05
   37.7999992      -2.04749722E-05
   37.9199982      -2.10567214E-05
   38.0400009      -2.16593380E-05
   38.1599998      -2.22832259E-05
   38.2799988      -2.29287853E-05
   38.4000015      -2.35963962E-05
   38.5200005      -2.42864317E-05
   38.6399994      -2.49992554E-05
   38.7599983      -2.57352240E-05
   38.8800011      -2.64946866E-05
   39.0000000      -2.72779889E-05
   39.1199989      -2.80854638E-05
   39.2400017      -2.89174386E-05
   39.3600006      -2.97742172E-05
   39.4799995      -3.06560942E-05
   39.5999985      -3.15633370E-05
   39.7200012      -3.24961911E-05
   39.8400002      -3.34548786E-05
   39.9599991      -3.44395849E-05
   40.0800018      -3.54504809E-05
   40.2000008      -3.64877269E-05
   40.3199997      -3.75514610E-05
   40.4399986      -3.86418033E-05
   40.5600014      -3.97588556E-05
   40.6800003      -4.09027052E-05
   40.7999992      -4.20734250E-05
   40.9199982      -4.32710513E-05
   41.0400009      -4.44955986E-05
   41.1599998      -4.57470487E-05
   41.2799988      -4.70253472E-05
   41.4000015      -4.83304066E-05
   41.5200005      -4.96621033E-05
   41.6399994      -5.10202553E-05
   41.7599983      -5.24046663E-05
   41.8800011      -5.38150816E-05
   42.0000000      -5.52512138E-05
   42.1199989      -5.67127390E-05
   42.2400017      -5.81993154E-05
   42.3600006      -5.97105463E-05
   42.4799995      -6.12460353E-05
   42.5999985      -6.28053240E-05
   42.7200012      -6.43879539E-05
   42.8400002      -6.59933867E-05
   42.9599991      -6.76210329E-05
   43.0800018      -6.92702379E-05
   43.2000008      -7.09402884E-05
   43.3199997      -7.26304279E-05
   43.4399986      -7.43398559E-05
   43.5600014      -7.60677358E-05
   43.6800003      -7.78132016E-05
   43.7999992      -7.95753585E-05
   43.9199982      -8.13532752E-05
   44.0400009      -8.31459693E-05
   44.1599998      -8.49523858E-05
   44.2799988      -8.67714261E-05
   44.4000015      -8.86018970E-05
   44.5200005      -9.04425688E-05
   44.6399994      -9.22921390E-05
   44.7599983      -9.41492835E-05
   44.8800011      -9.60126199E-05
   45.0000000      -9.78807366E-05
   45.1199989      -9.97521420E-05
   45.2400017      -1.01625294E-04
   45.3600006      -1.03498613E-04
   45.4799995      -1.05370433E-04
   45.5999985      -1.07239059E-04
   45.7200012      -1.09102722E-04
   45.8400002      -1.10959620E-04
   45.9599991      -1.12807887E-04
   46.0800018      -1.14645634E-04
   46.2000008      -1.16470881E-04
   46.3199997      -1.18281612E-04
   46.4399986      -1.20075740E-04
   46.5600014      -1.21851146E-04
   46.6800003      -1.23605656E-04
   46.7999992      -1.25337057E-04
   46.9199982      -1.27043138E-04
   47.0400009      -1.28721585E-04
   47.1599998      -1.30370056E-04
   47.2799988      -1.31986177E-04
   47.4000015      -1.33567519E-04
   47.5200005      -1.35111623E-04
   47.6399994      -1.36615927E-04
   47.7599983      -1.38077958E-04
   47.8800011      -1.39495110E-04
   48.0000000      -1.40864810E-04
   48.1199989      -1.42184435E-04
   48.2400017      -1.43451340E-04
   48.3600006      -1.44662772E-04
   48.4799995      -1.45816055E-04
   48.5999985      -1.46908395E-04
   48.7200012      -1.47936997E-04
   48.8400002      -1.48899082E-04
   48.9599991      -1.49791798E-04
   49.0800018      -1.50612337E-04
   49.2000008      -1.51357832E-04
   49.3199997      -1.52025488E-04
   49.4399986      -1.52612483E-04
   49.5600014      -1.53115936E-04
   49.6800003      -1.53533052E-04
   49.7999992      -1.53860936E-04
   49.9199982      -1.54096779E-04
   50.0400009      -1.54237685E-04
   50.1599998      -1.54280831E-04
   50.2799988      -1.54223380E-04
   50.4000015      -1.54062538E-04
   50.5200005      -1.53795540E-04
   50.6399994      -1.53419620E-04
   50.7599983      -1.52932087E-04
   50.8800011      -1.52330191E-04
   51.0000000      -1.51611297E-04
   51.1199989      -1.50772743E-04
   51.2400017      -1.49811967E-04
   51.3600006      -1.48726409E-04
   51.4799995      -1.47513580E-04
   51.5999985      -1.46171049E-04
   51.7200012      -1.44696402E-04
   51.8400002      -1.43087309E-04
   51.9599991      -1.41341559E-04
   52.0800018      -1.39456941E-04
   52.2000008      -1.37431343E-04
   52.3199997      -1.35262759E-04
   52.4399986      -1.32949222E-04
   52.5600014      -1.30488828E-04
   52.6800003      -1.27879786E-04
   52.7999992      -1.25120336E-04
   52.9199982      -1.22208861E-04
   53.0400009      -1.19143857E-04
   53.1599998      -1.15923918E-04
   53.2799988      -1.12547743E-04
   53.4000015      -1.09014109E-04
   53.5200005      -1.05321902E-04
   53.6399994      -1.01470119E-04
   53.7599983      -9.74578797E-05
   53.8800011      -9.32843977E-05
   54.0000000      -8.89490620E-05
   54.1199989      -8.44513852E-05
   54.2400017      -7.97910252E-05
   54.3600006      -7.49677638E-05
   54.4799995      -6.99815428E-05
   54.5999985      -6.48324203E-05
   54.7200012      -5.95206038E-05
   54.8400002      -5.40464425E-05
   54.9599991      -4.84104312E-05
   55.0800018      -4.26131992E-05
   55.2000008      -3.66555651E-05
   55.3199997      -3.05385074E-05
   55.4399986      -2.42631559E-05
   55.5600014      -1.78308237E-05
   55.6800003      -1.12429743E-05
   55.7999992      -4.50121888E-06
   55.9199982       2.39264932E-06
   56.0400009       9.43668147E-06
   56.1599998       1.66287555E-05
   56.2799988       2.39665696E-05
   56.4000015       3.14476420E-05
   56.5200005       3.90693094E-05
   56.6399994       4.68287544E-05
   56.7599983       5.47229611E-05
   56.8800011       6.27487461E-05
   57.0000000       7.09027663E-05
   57.1199989       7.91814964E-05
   57.2400017       8.75812038E-05
   57.3600006       9.60979523E-05
   57.4799995       1.04727638E-04
   57.5999985       1.13465961E-04
   57.7200012       1.22308396E-04
   57.8400002       1.31250330E-04
   57.9599991       1.40286909E-04
   58.0800018       1.49413201E-04
   58.2000008       1.58624054E-04
   58.3199997       1.67914215E-04
   58.4399986       1.77278227E-04
   58.5600014       1.86710429E-04
   58.6800003       1.96205045E-04
   58.7999992       2.05756005E-04
   58.9199982       2.15357199E-04
   59.0400009       2.25002281E-04
   59.1599998       2.34684863E-04
   59.2799988       2.44398398E-04
   59.4000015       2.54136161E-04
   59.5200005       2.63891445E-04
   59.6399994       2.73657264E-04
   59.7599983       2.83426605E-04
   59.8800011       2.93192104E-04
   60.0000000       3.02946457E-04
   60.1199989       3.12682154E-04
   60.2400017       3.22391570E-04
   60.3600006       3.32067022E-04
   60.4799995       3.41700710E-04
   60.5999985       3.51284805E-04
   60.7200012       3.60811449E-04
   60.8400002       3.70272581E-04
   60.9599991       3.79660138E-04
   61.0800018       3.88966087E-04
   61.2000008       3.98182252E-04
   61.3199997       4.07300482E-04
   61.4399986       4.16312687E-04
   61.5600014       4.25210717E-04
   61.6800003       4.33986308E-04
   61.7999992       4.42631339E-04
   61.9199982       4.51137661E-04
   62.0400009       4.59497009E-04
   62.1599998       4.67701262E-04
   62.2799988       4.75742272E-04
   62.4000015       4.83611948E-04
   62.5200005       4.91302286E-04
   62.6399994       4.98805312E-04
   62.7599983       5.06113167E-04
   62.8800011       5.13218110E-04
   63.0000000       5.20112400E-04
   63.1199989       5.26788470E-04
   63.2400017       5.33238810E-04
   63.3600006       5.39456261E-04
   63.4799995       5.45433722E-04
   63.5999985       5.51164208E-04
   63.7200012       5.56640909E-04
   63.8400002       5.61857305E-04
   63.9599991       5.66806877E-04
   64.0800018       5.71483339E-04
   64.1999969       5.75880811E-04
   64.3199997       5.79993415E-04
   64.4400024       5.83815679E-04
   64.5599976       5.87342249E-04
   64.6800003       5.90568059E-04
   64.8000031       5.93488279E-04
   64.9199982       5.96098311E-04
   65.0400009       5.98393905E-04
   65.1600037       6.00371219E-04
   65.2799988       6.02026586E-04
   65.4000015       6.03356690E-04
   65.5199966       6.04358560E-04
   65.6399994       6.05029461E-04
   65.7600021       6.05367066E-04
   65.8799973       6.05369394E-04
   66.0000000       6.05034700E-04
   66.1200027       6.04361703E-04
   66.2399979       6.03349530E-04
   66.3600006       6.01997541E-04
   66.4800034       6.00305619E-04
   66.5999985       5.98274113E-04
   66.7200012       5.95903432E-04
   66.8399963       5.93194622E-04
   66.9599991       5.90148964E-04
   67.0800018       5.86768147E-04
   67.1999969       5.83054207E-04
   67.3199997       5.79009647E-04
   67.4400024       5.74637321E-04
   67.5599976       5.69940486E-04
   67.6800003       5.64922753E-04
   67.8000031       5.59588079E-04
   67.9199982       5.53940947E-04
   68.0400009       5.47986012E-04
   68.1600037       5.41728572E-04
   68.2799988       5.35174215E-04
   68.4000015       5.28328877E-04
   68.5199966       5.21198963E-04
   68.6399994       5.13791107E-04
   68.7600021       5.06112468E-04
   68.8799973       4.98170266E-04
   69.0000000       4.89972299E-04
   69.1200027       4.81526426E-04
   69.2399979       4.72840999E-04
   69.3600006       4.63924720E-04
   69.4800034       4.54786437E-04
   69.5999985       4.45435464E-04
   69.7200012       4.35881200E-04
   69.8399963       4.26133542E-04
   69.9599991       4.16202471E-04
   70.0800018       4.06098261E-04
   70.1999969       3.95831448E-04
   70.3199997       3.85412714E-04
   70.4400024       3.74852971E-04
   70.5599976       3.64163250E-04
   70.6800003       3.53354786E-04
   70.8000031       3.42439016E-04
   70.9199982       3.31427349E-04
   71.0400009       3.20331514E-04
   71.1600037       3.09163181E-04
   71.2799988       2.97934224E-04
   71.4000015       2.86656490E-04
   71.5199966       2.75341939E-04
   71.6399994       2.64002505E-04
   71.7600021       2.52650090E-04
   71.8799973       2.41296642E-04
   72.0000000       2.29954108E-04
   72.1200027       2.18634275E-04
   72.2399979       2.07348916E-04
   72.3600006       1.96109686E-04
   72.4800034       1.84928183E-04
   72.5999985       1.73815861E-04
   72.7200012       1.62784068E-04