  -30.0000000       0.00000000    
  -29.8799992       0.00000000    
  -29.7600002       0.00000000    
  -29.6399994       0.00000000    
  -29.5200005       0.00000000    
  -29.3999996       0.00000000    
  -29.2800007      -2.38220739E-44
  -29.1599998      -2.05990874E-43
  -29.0400009      -1.20651798E-42
  -28.9200001      -3.93624739E-42
  -28.7999992      -9.44615295E-42
  -28.6800003      -9.10003223E-42
  -28.5599995       2.99401430E-41
  -28.4400005       1.80431190E-40
  -28.3199997       5.03720555E-40
  -28.2000008       8.31524904E-40
  -28.0799999       3.63723832E-40
  -27.9599991      -2.60063479E-39
  -27.8400002      -9.95326324E-39
  -27.7199993      -2.10925028E-38
  -27.6000004      -2.83814899E-38
  -27.4799995      -1.37110665E-38
  -27.3600006       4.75294711E-38
  -27.2399998       1.68519660E-37
  -27.1200008       3.19747589E-37
  -27.0000000       4.00333797E-37
  -26.8799992       2.43675377E-37
  -26.7600002      -3.10391130E-37
  -26.6399994      -1.27497058E-36
  -26.5200005      -2.36480474E-36
  -26.3999996      -2.95057387E-36
  -26.2800007      -2.23836143E-36
  -26.1599998       3.02566055E-37
  -26.0400009       4.42373558E-36
  -25.9200001       8.82479927E-36
  -25.7999992       1.14625328E-35
  -25.6800003       1.05129703E-35
  -25.5599995       5.57568489E-36
  -25.4400005      -1.71197346E-36
  -25.3199997      -8.45233172E-36
  -25.2000008      -1.27313471E-35
  -25.0799999      -1.61695490E-35
  -24.9599991      -2.45925701E-35
  -24.8400002      -4.47750849E-35
  -24.7199993      -7.71191277E-35
  -24.6000004      -1.07383590E-34
  -24.4799995      -1.03534718E-34
  -24.3600006      -2.41187707E-35
  -24.2399998       1.59437017E-34
  -24.1200008       4.32162692E-34
  -24.0000000       7.10942289E-34
  -23.8799992       8.45022022E-34
  -23.7600002       6.56264078E-34
  -23.6399994       1.87061286E-35
  -23.5200005      -1.04497407E-33
  -23.3999996      -2.29222666E-33
  -23.2800007      -3.26286008E-33
  -23.1599998      -3.38685416E-33
  -23.0400009      -2.19133600E-33
  -22.9200001       4.49626589E-34
  -22.7999992       4.11955816E-33
  -22.6800003       7.82456060E-33
  -22.5599995       1.01876180E-32
  -22.4400005       9.86134113E-33
  -22.3199997       6.05112019E-33
  -22.2000008      -1.03374893E-33
  -22.0799999      -9.99595507E-33
  -21.9599991      -1.84600265E-32
  -21.8400002      -2.36697910E-32
  -21.7199993      -2.33166402E-32
  -21.6000004      -1.63370572E-32
  -21.4799995      -3.40795355E-33
  -21.3600006       1.30379721E-32
  -21.2399998       2.92949179E-32
  -21.1200008       4.12261385E-32
  -21.0000000       4.52374719E-32
  -20.8799992       3.91579209E-32
  -20.7600002       2.28740607E-32
  -20.6399994      -1.35824194E-33
  -20.5200005      -2.89741049E-32
  -20.3999996      -5.36114291E-32
  -20.2800007      -6.81869126E-32
  -20.1599998      -6.65931656E-32
  -20.0400009      -4.58630200E-32
  -19.9200001      -8.29871535E-33
  -19.7999992       3.72827517E-32
  -19.6800003       7.61676023E-32
  -19.5599995       9.09143612E-32
  -19.4400005       6.69802794E-32
  -19.3199997      -4.04430025E-34
  -19.2000008      -1.00388134E-31
  -19.0799999      -2.04450300E-31
  -18.9599991      -2.70437898E-31
  -18.8400002      -2.53337723E-31
  -18.7199993      -1.20980409E-31
  -18.6000004       1.29653500E-31
  -18.4799995       4.61425872E-31
  -18.3600006       7.96918590E-31
  -18.2399998       1.03217056E-30
  -18.1200008       1.06276830E-30
  -18.0000000       8.15774366E-31
  -17.8799992       2.77413705E-31
  -17.7600002      -4.93808579E-31
  -17.6399994      -1.37486205E-30
  -17.5200005      -2.20560883E-30
  -17.3999996      -2.82628658E-30
  -17.2800007      -3.11001989E-30
  -17.1599998      -2.97629245E-30
  -17.0400009      -2.37999670E-30
  -16.9200001      -1.28473774E-30
  -16.7999992       3.57335518E-31
  -16.6800003       2.59143692E-30
  -16.5599995       5.39290590E-30
  -16.4400005       8.55211975E-30
  -16.3199997       1.15502834E-29
  -16.2000008       1.34944826E-29
  -16.0799999       1.31904700E-29
  -15.9600000       9.40921199E-30
  -15.8400002       1.34483146E-30
  -15.7200003      -1.08229567E-29
  -15.6000004      -2.54357839E-29
  -15.4799995      -3.91640111E-29
  -15.3599997      -4.73400201E-29
  -15.2399998      -4.49516984E-29
  -15.1199999      -2.82500580E-29
  -15.0000000       3.32028366E-30
  -14.8800001       4.54149327E-29
  -14.7600002       8.80393494E-29
  -14.6400003       1.16499129E-28
  -14.5200005       1.14545839E-28
  -14.3999996       6.96498541E-29
  -14.2799997      -2.05049037E-29
  -14.1599998      -1.42150217E-28
  -14.0400000      -2.62762543E-28
  -13.9200001      -3.34274633E-28
  -13.8000002      -3.03946653E-28
  -13.6800003      -1.32566982E-28
  -13.5600004       1.83428661E-28
  -13.4399996       5.92635655E-28
  -13.3199997       9.81158943E-28
  -13.1999998       1.18571899E-27
  -13.0799999       1.03244829E-27
  -12.9600000       3.98865291E-28
  -12.8400002      -7.13662537E-28
  -12.7200003      -2.11970026E-27
  -12.6000004      -3.43052188E-27
  -12.4799995      -4.10258015E-27
  -12.3599997      -3.56749441E-27
  -12.2399998      -1.43358319E-27
  -12.1199999       2.28195524E-27
  -12.0000000       6.96131924E-27
  -11.8800001       1.13244866E-26
  -11.7600002       1.35823775E-26
  -11.6400003       1.18518439E-26
  -11.5200005       4.80720357E-27
  -11.3999996      -7.55506418E-27
  -11.2799997      -2.32631013E-26
  -11.1599998      -3.81220699E-26
  -11.0400000      -4.61629877E-26
  -10.9200001      -4.09672170E-26
  -10.8000002      -1.78129892E-26
  -10.6800003       2.37386997E-26
  -10.5600004       7.75526383E-26
  -10.4399996       1.29909860E-25
  -10.3199997       1.60782376E-25
  -10.1999998       1.48047153E-25
  -10.0799999       7.45392081E-26
  -9.96000004      -6.32410436E-26
  -9.84000015      -2.47124336E-25
  -9.72000027      -4.33211693E-25
  -9.60000038      -5.55128371E-25
  -9.47999954      -5.36949564E-25
  -9.35999966      -3.15822731E-25
  -9.23999977       1.29131415E-25
  -9.11999989       7.48910474E-25
  -9.00000000       1.40808299E-24
  -8.88000011       1.89088578E-24
  -8.76000023       1.93863100E-24
  -8.64000034       1.32022844E-24
  -8.52000046      -7.30962336E-26
  -8.39999962      -2.13044509E-24
  -8.27999973      -4.45391498E-24
  -8.15999985      -6.35895490E-24
  -8.03999996      -6.97443680E-24
  -7.92000008      -5.45515894E-24
  -7.80000019      -1.28680815E-24
  -7.67999983       5.37767307E-24
  -7.55999994       1.34508073E-23
  -7.44000006       2.08363361E-23
  -7.32000017       2.46642395E-23
  -7.19999981       2.19005710E-23
  -7.07999992       1.03012297E-23
  -6.96000004      -1.04515716E-23
  -6.84000015      -3.77278597E-23
  -6.71999979      -6.54403224E-23
  -6.59999990      -8.44556315E-23
  -6.48000002      -8.42169033E-23
  -6.36000013      -5.55982476E-23
  -6.23999977       5.38643929E-24
  -6.11999989       9.38534956E-23
  -6.00000000       1.93518006E-22
  -5.88000011       2.76742680E-22
  -5.76000023       3.08330917E-22
  -5.63999987       2.53534695E-22
  -5.51999998       8.95899738E-23
  -5.40000010      -1.81357671E-22
  -5.28000021      -5.21481992E-22
  -5.15999985      -8.53095640E-22
  -5.03999996      -1.06536339E-21
  -4.92000008      -1.03464421E-21
  -4.80000019      -6.58082055E-22
  -4.67999983       1.04303624E-22
  -4.55999994       1.18854202E-21
  -4.44000006       2.40001790E-21
  -4.32000017       3.41586455E-21
  -4.19999981       3.82847339E-21
  -4.07999992       3.23459265E-21
  -3.96000004       1.36228943E-21
  -3.83999991      -1.78694782E-21
  -3.72000003      -5.81810368E-21
  -3.59999990      -9.89077953E-21
  -3.48000002      -1.27806812E-20
  -3.35999990      -1.30841604E-20
  -3.24000001      -9.56470962E-21
  -3.11999989      -1.59702192E-21
  -3.00000000       1.03836112E-20
  -2.88000011       2.45586208E-20
  -2.75999999       3.76789332E-20
  -2.64000010       4.54211046E-20
  -2.51999998       4.32075531E-20
  -2.40000010       2.74394744E-20
  -2.27999997      -3.05084788E-21
  -2.16000009      -4.56628998E-20
  -2.03999996      -9.32399925E-20
  -1.91999996      -1.34276138E-19
  -1.79999995      -1.54450311E-19
  -1.67999995      -1.39567548E-19
  -1.55999994      -7.96136395E-20
  -1.44000006       2.68006163E-20
  -1.32000005       1.68713722E-19
  -1.20000005       3.21127540E-19
  -1.08000004       4.46594658E-19
 -0.959999979       5.00843799E-19
 -0.839999974       4.42349308E-19
 -0.720000029       2.44608836E-19
 -0.600000024      -9.13074789E-20
 -0.479999989      -5.27307219E-19
 -0.360000014      -9.85607000E-19
 -0.239999995      -1.35589616E-18
 -0.119999997      -1.51367383E-18
  -1.11022302E-15  -1.34842124E-18
  0.119999997      -7.97060950E-19
  0.239999995       1.24830563E-19
  0.360000014       1.30341186E-18
  0.479999989       2.52762945E-18
  0.600000024       3.51695979E-18
  0.720000029       3.97603469E-18
  0.839999974       3.66848811E-18
  0.959999979       2.49417888E-18
   1.08000004       5.47817887E-19
   1.20000005      -1.86435509E-18
   1.32000005      -4.26773042E-18
   1.44000006      -6.12695409E-18
   1.55999994      -7.00293340E-18
   1.67999995      -6.72182269E-18
   1.79999995      -5.49981967E-18
   1.91999996      -3.96016192E-18
   2.03999996      -2.98976491E-18
   2.16000009      -3.41691168E-18
   2.27999997      -5.54763774E-18
   2.40000010      -8.66809678E-18
   2.51999998      -1.06871148E-17
   2.64000010      -8.13397137E-18
   2.75999999       3.28449288E-18
   2.88000011       2.74471977E-17
   3.00000000       6.59488272E-17
   3.11999989       1.15878567E-16
   3.24000001       1.67796565E-16
   3.35999990       2.04690276E-16
   3.48000002       2.02800983E-16
   3.59999990       1.35108730E-16
   3.72000003      -2.21276687E-17
   3.83999991      -2.80076764E-16
   3.96000004      -6.26548683E-16
   4.07999992      -1.01604514E-15
   4.19999981      -1.36391045E-15
   4.32000017      -1.54833906E-15
   4.44000006      -1.42368292E-15
   4.55999994      -8.47152485E-16
   4.67999983       2.81552825E-16
   4.80000019       1.97176289E-15
   4.92000008       4.09275055E-15
   5.03999996       6.33629688E-15
   5.15999985       8.20583751E-15
   5.28000021       9.04726733E-15
   5.40000010       8.13298674E-15
   5.51999998       4.80302071E-15
   5.63999987      -1.34507604E-15
   5.76000023      -1.02408850E-14
   5.88000011      -2.11397604E-14
   6.00000000      -3.24881723E-14
   6.11999989      -4.19153102E-14
   6.23999977      -4.64062111E-14
   6.36000013      -4.26936555E-14
   6.48000002      -2.78721206E-14
   6.59999990      -1.89643993E-16
   6.71999979       4.00826663E-14
   6.84000015       8.98601194E-14
   6.96000004       1.42732397E-13
   7.07999992       1.88947043E-13
   7.19999981       2.16083512E-13
   7.32000017       2.10541694E-13
   7.44000006       1.59847572E-13
   7.55999994       5.56133779E-14
   7.67999983      -1.03200963E-13
   7.80000019      -3.07263167E-13
   7.92000008      -5.34761417E-13
   8.03999996      -7.50950734E-13
   8.15999985      -9.10021624E-13
   8.27999973      -9.59738040E-13
   8.39999962      -8.48919730E-13
   8.52000046      -5.37326802E-13
   8.64000034      -6.92408904E-15
   8.76000023       7.27087552E-13
   8.88000011       1.60754233E-12
   9.00000000       2.53118425E-12
   9.11999989       3.35132963E-12
   9.23999977       3.88895296E-12
   9.35999966       3.95285627E-12
   9.47999954       3.36819201E-12
   9.60000038       2.01098621E-12
   9.72000027      -1.55377054E-13
   9.84000015      -3.04717991E-12
   9.96000004      -6.43729601E-12
   10.0799999      -9.94845612E-12
   10.1999998      -1.30683684E-11
   10.3199997      -1.51901044E-11
   10.4399996      -1.56780231E-11
   10.5600004      -1.39556058E-11
   10.6800003      -9.60737132E-12
   10.8000002      -2.48302594E-12
   10.9200001       7.21092023E-12
   11.0400000       1.88482355E-11
   11.1599998       3.13641474E-11
   11.2799997       4.32928103E-11
   11.3999996       5.28676374E-11
   11.5200005       5.81835621E-11
   11.6400003       5.74115130E-11
   11.7600002       4.90467736E-11
   11.8800001       3.21651629E-11
   12.0000000       6.65621421E-12
   12.1199999      -2.65990875E-11
   12.2399998      -6.56355803E-11
   12.3599997      -1.07418581E-10
   12.4799995      -1.47977575E-10
   12.6000004      -1.82657250E-10
   12.7200003      -2.06470258E-10
   12.8400002      -2.14523233E-10
   12.9600000      -2.02478742E-10
   13.0799999      -1.67011599E-10
   13.1999998      -1.06219790E-10
   13.3199997      -1.99578947E-11
   13.4399996       8.99260111E-11
   13.5600004       2.19454968E-10
   13.6800003       3.62479546E-10
   13.8000002       5.10706921E-10
   13.9200001       6.53780752E-10
   14.0400000       7.79398712E-10
   14.1599998       8.73469685E-10
   14.2799997       9.20344023E-10
   14.3999996       9.03178754E-10
   14.5200005       8.04533662E-10
   14.6400003       6.07318085E-10
   14.7600002       2.96213831E-10
   14.8800001      -1.40319992E-10
   15.0000000      -7.07402970E-10
   15.1199999      -1.40048217E-09
   15.2399998      -2.20162488E-09
   15.3599997      -3.07565240E-09
   15.4799995      -3.96657995E-09
   15.6000004      -4.79497375E-09
   15.7200003      -5.45697798E-09
   15.8400002      -5.82581405E-09
   15.9600000      -5.75657344E-09
   16.0799999      -5.09497466E-09
   16.2000008      -3.69053343E-09
   16.3199997      -1.41420087E-09
   16.4400005       1.81996673E-09
   16.5599995       6.03015682E-09
   16.6800003       1.11409069E-08
   16.7999992       1.69583743E-08
   16.9200001       2.31498110E-08
   17.0400009       2.92307565E-08
   17.1599998       3.45636977E-08
   17.2800007       3.83719119E-08
   17.3999996       3.97716029E-08
   17.5200005       3.78247051E-08
   17.6399994       3.16130944E-08
   17.7600002       2.03332675E-08
   17.8799992       3.40817086E-09
   18.0000000      -1.93896703E-08
   18.1200008      -4.78121223E-08
   18.2399998      -8.10174683E-08
   18.3600006      -1.17473682E-07
   18.4799995      -1.54897279E-07
   18.6000004      -1.90243099E-07
   18.7199993      -2.19759016E-07
   18.8400002      -2.39118123E-07
   18.9599991      -2.43636975E-07
   19.0799999      -2.28583474E-07
   19.2000008      -1.89571381E-07
   19.3199997      -1.23031455E-07
   19.4400005      -2.67400821E-08
   19.5599995       9.96212606E-08
   19.6800003       2.53910088E-07
   19.7999992       4.31012069E-07
   19.9200001       6.22420316E-07
   20.0400009       8.15952035E-07
   20.1599998       9.95648406E-07
   20.2800007       1.14189731E-06
   20.3999996       1.23181201E-06
   20.5200005       1.23988264E-06
   20.6399994       1.13890610E-06
   20.7600002       9.01178396E-07
   20.8799992       4.99915188E-07
   21.0000000      -8.91508165E-08
   21.1200008      -8.86069358E-07
   21.2399998      -1.90495518E-06
   21.3600006      -3.15235093E-06
   21.4799995      -4.62577782E-06
   21.6000004      -6.31257353E-06
   21.7199993      -8.18912304E-06
   21.8400002      -1.02205540E-05
   21.9599991      -1.23609789E-05
   22.0799999      -1.45542963E-05
   22.2000008      -1.67355920E-05
   22.3199997      -1.88330832E-05
   22.4400005      -2.07705798E-05
   22.5599995      -2.24703253E-05
   22.6800003      -2.38561679E-05
   22.7999992      -2.48568467E-05
   22.9200001      -2.54092884E-05
   23.0400009      -2.54617171E-05
   23.1599998      -2.49764307E-05
   23.2800007      -2.39320816E-05
   23.3999996      -2.23253192E-05
   23.5200005      -2.01717248E-05
   23.6399994      -1.75059231E-05
   23.7600002      -1.43808866E-05
   23.8799992      -1.08664035E-05
   24.0000000      -7.04680906E-06
   24.1200008      -3.01804471E-06
   24.2399998       1.11581119E-06
   24.3600006       5.24637926E-06
   24.4799995       9.26500979E-06
   24.6000004       1.30668095E-05
   24.7199993       1.65544971E-05
   24.8400002       1.96418860E-05
   24.9599991       2.22568633E-05
   25.0799999       2.43437316E-05
   25.2000008       2.58648161E-05
   25.3199997       2.68013100E-05
   25.4400005       2.71533172E-05
   25.5599995       2.69391330E-05
   25.6800003       2.61938530E-05
   25.7999992       2.49673740E-05
   25.9200001       2.33219034E-05
   26.0400009       2.13291460E-05
   26.1599998       1.90672909E-05
   26.2800007       1.66179307E-05
   26.3999996       1.40630727E-05
   26.5200005       1.14823461E-05
   26.6399994       8.95048652E-06
   26.7600002       6.53521238E-06
   26.8799992       4.29550755E-06
   27.0000000       2.28035174E-06
   27.1200008       5.27901364E-07
   27.2399998      -9.34901436E-07
   27.3600006      -2.09231985E-06
   27.4799995      -2.93946187E-06
   27.6000004      -3.48161734E-06
   27.7199993      -3.73334751E-06
   27.8400002      -3.71738088E-06
   27.9599991      -3.46336537E-06
   28.0799999      -3.00652255E-06
   28.2000008      -2.38624125E-06
   28.3199997      -1.64464564E-06
   28.4400005      -8.25168058E-07
   28.5599995       2.88529787E-08
   28.6800003       8.75521323E-07
   28.7999992       1.67565668E-06
   28.9200001       2.39397014E-06
   29.0400009       3.00011425E-06
   29.1599998       3.46958382E-06
   29.2800007       3.78443542E-06
   29.3999996       3.93380333E-06
   29.5200005       3.91418280E-06
   29.6399994       3.72946170E-06
   29.7600002       3.39068606E-06
   29.8799992       2.91555557E-06
   30.0000000       2.32765115E-06
   30.1200008       1.65541678E-06
   30.2399998       9.30921658E-07
   30.3600006       1.88448610E-07
   30.4799995      -5.37036556E-07
   30.6000004      -1.21147139E-06
   30.7199993      -1.80326901E-06
   30.8400002      -2.28480030E-06
   30.9599991      -2.63371589E-06
   31.0799999      -2.83403733E-06
   31.2000008      -2.87696116E-06
   31.3199997      -2.76132755E-06
   31.4400005      -2.49372351E-06
   31.5599995      -2.08820438E-06
   31.6800003      -1.56564522E-06
   31.7999992      -9.52739811E-07
   31.9200001      -2.80698089E-07
   32.0400009       4.16299741E-07
   32.1599998       1.10281553E-06
   32.2799988       1.74394575E-06
   32.4000015       2.30709998E-06
   32.5200005       2.76367359E-06
   32.6399994       3.09052461E-06
   32.7599983       3.27117050E-06
   32.8800011       3.29664363E-06
   33.0000000       3.16595128E-06
   33.1199989       2.88611477E-06
   33.2400017       2.47178218E-06
   33.3600006       1.94443260E-06
   33.4799995       1.33121353E-06
   33.5999985       6.63475987E-07
   33.7200012      -2.49122714E-08
   33.8400002      -6.99381985E-07
   33.9599991      -1.32650393E-06
   34.0800018      -1.87575210E-06
   34.2000008      -2.32109483E-06
   34.3199997      -2.64232017E-06
   34.4399986      -2.82603082E-06
   34.5600014      -2.86625323E-06
   34.6800003      -2.76463447E-06
   34.7999992      -2.53022631E-06
   34.9199982      -2.17887305E-06
   35.0400009      -1.73224976E-06
   35.1599998      -1.21661333E-06
   35.2799988      -6.61340778E-07
   35.4000015      -9.73431540E-08
   35.5200005       4.44555809E-07
   35.6399994       9.35188382E-07
   35.7599983       1.34847869E-06
   35.8800011       1.66267603E-06
   36.0000000       1.86133013E-06
   36.1199989       1.93397295E-06
   36.2400017       1.87648334E-06
   36.3600006       1.69113287E-06
   36.4799995       1.38632424E-06
   36.5999985       9.76049819E-07
   36.7200012       4.79105893E-07
   36.8400002      -8.18904198E-08
   36.9599991      -6.81629501E-07
   37.0800018      -1.29332943E-06
   37.2000008      -1.88998911E-06
   37.3199997      -2.44562261E-06
   37.4399986      -2.93641938E-06
   37.5600014      -3.34178139E-06
   37.6800003      -3.64520042E-06
   37.7999992      -3.83492852E-06
   37.9199982      -3.90442119E-06
   38.0400009      -3.85253588E-06
   38.1599998      -3.68346787E-06
   38.2799988      -3.40643442E-06
   38.4000015      -3.03512365E-06
   38.5200005      -2.58692899E-06
   38.6399994      -2.08201413E-06
   38.7599983      -1.54225779E-06
   38.8800011      -9.90131525E-07
   39.0000000      -4.47579851E-07
   39.1199989       6.50372485E-08
   39.2400017       5.29878889E-07
   39.3600006       9.32378725E-07
   39.4799995       1.26178134E-06
   39.5999985       1.51143172E-06
   39.7200012       1.67880773E-06
   39.8400002       1.76530477E-06
   39.9599991       1.77579716E-06
   40.0800018       1.71802014E-06
   40.2000008       1.60182401E-06
   40.3199997       1.43836473E-06
   40.4399986       1.23929306E-06
   40.5600014       1.01600449E-06
   40.6800003       7.79003585E-07
   40.7999992       5.37422409E-07
   40.9199982       2.98719243E-07
   41.0400009       6.85641055E-08
   41.1599998      -1.49097261E-07
   41.2799988      -3.51827651E-07
   41.4000015      -5.38367942E-07
   41.5200005      -7.08239440E-07
   41.6399994      -8.61327976E-07
   41.7599983      -9.97499001E-07
   41.8800011      -1.11628583E-06
   42.0000000      -1.21668154E-06
   42.1199989      -1.29705643E-06
   42.2400017      -1.35520315E-06
   42.3600006      -1.38850191E-06
   42.4799995      -1.39418455E-06
   42.5999985      -1.36966446E-06
   42.7200012      -1.31289676E-06
   42.8400002      -1.22272627E-06
   42.9599991      -1.09918733E-06
   43.0800018      -9.43719670E-07
   43.2000008      -7.59279089E-07
   43.3199997      -5.50324273E-07
   43.4399986      -3.22680421E-07
   43.5600014      -8.32858404E-08
   43.6800003       1.60159956E-07
   43.7999992       3.99619438E-07
   43.9199982       6.27179361E-07
   44.0400009       8.35516460E-07
   44.1599998       1.01833086E-06
   44.2799988       1.17071261E-06
   44.4000015       1.28941463E-06
   44.5200005       1.37300844E-06
   44.6399994       1.42191232E-06
   44.7599983       1.43828606E-06
   44.8800011       1.42580063E-06
   45.0000000       1.38929636E-06
   45.1199989       1.33435583E-06
   45.2400017       1.26681937E-06
   45.3600006       1.19228082E-06
   45.4799995       1.11560121E-06
   45.5999985       1.04047933E-06
   45.7200012       9.69115149E-07
   45.8400002       9.01996430E-07
   45.9599991       8.37834932E-07
   46.0800018       7.73662236E-07
   46.2000008       7.05089064E-07
   46.3199997       6.26716485E-07
   46.4399986       5.32673880E-07
   46.5600014       4.17247463E-07
   46.6800003       2.75551798E-07
   46.7999992       1.04188942E-07
   46.9199982      -9.81621255E-08
   47.0400009      -3.30283370E-07
   47.1599998      -5.88133503E-07
   47.2799988      -8.64781271E-07
   47.4000015      -1.15057969E-06
   47.5200005      -1.43358670E-06
   47.6399994      -1.70021508E-06
   47.7599983      -1.93607480E-06
   47.8800011      -2.12694908E-06
   48.0000000      -2.25983194E-06
   48.1199989      -2.32394382E-06
   48.2400017      -2.31163745E-06
   48.3600006      -2.21911478E-06
   48.4799995      -2.04688286E-06
   48.5999985      -1.79990241E-06
   48.7200012      -1.48740321E-06
   48.8400002      -1.12237126E-06
   48.9599991      -7.20742776E-07
   49.0800018      -3.00365002E-07
   49.2000008       1.20191075E-07
   49.3199997       5.22870266E-07
   49.4399986       8.91318450E-07
   49.5600014       1.21191420E-06
   49.6800003       1.47456115E-06
   49.7999992       1.67317421E-06
   49.9199982       1.80582674E-06
   50.0400009       1.87455146E-06
   50.1599998       1.88482704E-06
   50.2799988       1.84480325E-06
   50.4000015       1.76435378E-06
   50.5200005       1.65404424E-06
   50.6399994       1.52412406E-06
   50.7599983       1.38363566E-06
   50.8800011       1.23972370E-06
   51.0000000       1.09720179E-06
   51.1199989       9.58409260E-07
   51.2400017       8.23355094E-07
   51.3600006       6.90121453E-07
   51.4799995       5.55468660E-07
   51.5999985       4.15567882E-07
   51.7200012       2.66775032E-07
   51.8400002       1.06359209E-07
   51.9599991      -6.68931790E-08
   52.0800018      -2.52261060E-07
   52.2000008      -4.46898895E-07
   52.3199997      -6.45888690E-07
   52.4399986      -8.42523718E-07
   52.5600014      -1.02878710E-06
   52.6800003      -1.19597428E-06
   52.7999992      -1.33539083E-06
   52.9199982      -1.43905811E-06
   53.0400009      -1.50035794E-06
   53.1599998      -1.51456015E-06
   53.2799988      -1.47919263E-06
   53.4000015      -1.39422980E-06
   53.5200005      -1.26209545E-06
   53.6399994      -1.08749737E-06
   53.7599983      -8.77118339E-07
   53.8800011      -6.39205666E-07
   54.0000000      -3.83100740E-07
   54.1199989      -1.18750506E-07
   54.2400017       1.43760914E-07
   54.3600006       3.94635180E-07
   54.4799995       6.24718894E-07
   54.5999985       8.25793677E-07
   54.7200012       9.90801254E-07
   54.8400002       1.11401175E-06
   54.9599991       1.19115225E-06
   55.0800018       1.21950222E-06
   55.2000008       1.19797335E-06
   55.3199997       1.12717112E-06
   55.4399986       1.00943862E-06
   55.5600014       8.48873356E-07
   55.6800003       6.51300923E-07
   55.7999992       4.24190887E-07
   55.9199982       1.76496641E-07
   56.0400009      -8.15927237E-08
   56.1599998      -3.38994369E-07
   56.2799988      -5.84164070E-07
   56.4000015      -8.05606135E-07
   56.5200005      -9.92435162E-07
   56.6399994      -1.13495810E-06
   56.7599983      -1.22523716E-06
   56.8800011      -1.25759175E-06
   57.0000000      -1.22899974E-06
   57.1199989      -1.13936403E-06
   57.2400017      -9.91619345E-07
   57.3600006      -7.91667333E-07
   57.4799995      -5.48137734E-07
   57.5999985      -2.71991354E-07
   57.7200012       2.40117792E-08
   57.8400002       3.25944427E-07
   57.9599991       6.19404943E-07
   58.0800018       8.90227966E-07
   58.2000008       1.12517296E-06
   58.3199997       1.31255467E-06
   58.4399986       1.44278602E-06
   58.5600014       1.50881306E-06
   58.6800003       1.50643064E-06
   58.7999992       1.43447130E-06
   58.9199982       1.29487194E-06
   59.0400009       1.09262112E-06
   59.1599998       8.35594392E-07
   59.2799988       5.34285505E-07
   59.4000015       2.01439448E-07
   59.5200005      -1.48406485E-07
   59.6399994      -4.99467660E-07
   59.7599983      -8.35335868E-07
   59.8800011      -1.13967053E-06
   60.0000000      -1.39694032E-06
   60.1199989      -1.59319347E-06
   60.2400017      -1.71682302E-06
   60.3600006      -1.75928949E-06
   60.4799995      -1.71575675E-06
   60.5999985      -1.58559078E-06
   60.7200012      -1.37267648E-06
   60.8400002      -1.08550807E-06
   60.9599991      -7.37023413E-07
   61.0800018      -3.44162231E-07
   61.2000008       7.28481950E-08
   61.3199997       4.91459048E-07
   61.4399986       8.87974522E-07
   61.5600014       1.23887185E-06
   61.6800003       1.52218706E-06
   61.7999992       1.71887655E-06
   61.9199982       1.81405926E-06
   62.0400009       1.79804852E-06
   62.1599998       1.66709276E-06
   62.2799988       1.42376314E-06
   62.4000015       1.07695223E-06
   62.5200005       6.41472582E-07
   62.6399994       1.37278292E-07
   62.7599983      -4.11639405E-07
   62.8800011      -9.78607545E-07
   63.0000000      -1.53578083E-06
   63.1199989      -2.05569950E-06
   63.2400017      -2.51278675E-06
   63.3600006      -2.88468436E-06
   63.4799995      -3.15334546E-06
   63.5999985      -3.30581952E-06
   63.7200012      -3.33470189E-06
   63.8400002      -3.23823974E-06
   63.9599991      -3.02012381E-06
   64.0800018      -2.68900953E-06
   64.1999969      -2.25783469E-06
   64.3199997      -1.74300339E-06
   64.4400024      -1.16351237E-06
   64.5599976      -5.40077906E-07
   64.6800003       1.05680790E-07
   64.8000031       7.51974881E-07
   64.9199982       1.37748088E-06
   65.0400009       1.96188330E-06
   65.1600037       2.48634296E-06
   65.2799988       2.93391645E-06
   65.4000015       3.28995429E-06
   65.5199966       3.54249482E-06
   65.6399994       3.68266569E-06
   65.7600021       3.70508519E-06
   65.8799973       3.60824220E-06
   66.0000000       3.39481653E-06
   66.1200027       3.07189634E-06
   66.2399979       2.65103608E-06
   66.3600006       2.14810916E-06
   66.4800034       1.58291766E-06
   66.5999985       9.78532171E-07
   66.7200012       3.60367437E-07
   66.8399963      -2.44982829E-07
   66.9599991      -8.11098857E-07
   67.0800018      -1.31319712E-06
   67.1999969      -1.72960529E-06
   67.3199997      -2.04314097E-06
   67.4400024      -2.24227938E-06
   67.5599976      -2.32200728E-06
   67.6800003      -2.28427120E-06
   67.8000031      -2.13796329E-06
   67.9199982      -1.89841546E-06
   68.0400009      -1.58641353E-06
   68.1600037      -1.22678853E-06
   68.2799988      -8.46673288E-07
   68.4000015      -4.73550074E-07
   68.5199966      -1.33234664E-07
   68.6399994       1.52045459E-07
   68.7600021       3.65324098E-07
   68.8799973       4.96180405E-07
   69.0000000       5.41523093E-07
   69.1200027       5.05801097E-07
   69.2399979       4.00612748E-07
   69.3600006       2.43734803E-07
   69.4800034       5.76392125E-08
   69.5999985      -1.32390639E-07
   69.7200012      -3.00396550E-07
   69.8399963      -4.21966973E-07
   69.9599991      -4.76362572E-07
   70.0800018      -4.48372930E-07
   70.1999969      -3.29749241E-07
   70.3199997      -1.20090178E-07
   70.4400024       1.72897870E-07
   70.5599976       5.33796367E-07
   70.6800003       9.40502503E-07
   70.8000031       1.36581514E-06
   70.9199982       1.77945458E-06
   71.0400009       2.15036175E-06
   71.1600037       2.44909188E-06
   71.2799988       2.65011045E-06
   71.4000015       2.73380715E-06
   71.5199966       2.68806639E-06
   71.6399994       2.50926519E-06
   71.7600021       2.20262064E-06
   71.8799973       1.78186212E-06
   72.0000000       1.26825546E-06
   72.1200027       6.89068145E-07
   72.2399979       7.55993099E-08
   72.3600006      -5.39059442E-07
   72.4800034      -1.12235034E-06
   72.5999985      -1.64447647E-06
   72.7200012      -2.08035931E-06