  -30.0000000       0.00000000    
  -29.8799992       0.00000000    
  -29.7600002       0.00000000    
  -29.6399994       0.00000000    
  -29.5200005       0.00000000    
  -29.3999996       0.00000000    
  -29.2800007       0.00000000    
  -29.1599998       6.08081806E-29
  -29.0400009       3.44140425E-28
  -28.9200001      -4.70787797E-28
  -28.7999992      -1.24393304E-26
  -28.6800003      -6.44443276E-26
  -28.5599995      -1.77170197E-25
  -28.4400005      -1.98116192E-25
  -28.3199997       5.70645561E-25
  -28.2000008       3.65090862E-24
  -28.0799999       1.04398247E-23
  -27.9599991       1.82099626E-23
  -27.8400002       1.24894991E-23
  -27.7199993      -3.92839036E-23
  -27.6000004      -1.78478871E-22
  -27.4799995      -4.09393516E-22
  -27.3600006      -6.07140472E-22
  -27.2399998      -4.15320348E-22
  -27.1200008       7.50953072E-22
  -27.0000000       3.40917158E-21
  -26.8799992       7.26303271E-21
  -26.7600002       1.00995077E-20
  -26.6399994       6.95607600E-21
  -26.5200005      -9.14212049E-21
  -26.3999996      -4.32333799E-20
  -26.2800007      -9.03995254E-20
  -26.1599998      -1.25518131E-19
  -26.0400009      -9.73031489E-20
  -25.9200001       6.19277361E-20
  -25.7999992       3.98347591E-19
  -25.6800003       8.67090423E-19
  -25.5599995       1.25088465E-18
  -25.4400005       1.12135013E-18
  -25.3199997      -7.27829112E-20
  -25.2000008      -2.71247764E-18
  -25.0799999      -6.50955449E-18
  -24.9599991      -9.96437730E-18
  -24.8400002      -1.01501877E-17
  -24.7199993      -3.32998926E-18
  -24.6000004       1.32003252E-17
  -24.4799995       3.81624375E-17
  -24.3600006       6.32672863E-17
  -24.2399998       7.21348743E-17
  -24.1200008       4.36508966E-17
  -24.0000000      -3.86008862E-17
  -23.8799992      -1.71843450E-16
  -23.7600002      -3.19667111E-16
  -23.6399994      -4.06744904E-16
  -23.5200005      -3.33005842E-16
  -23.3999996      -1.32430202E-17
  -23.2800007       5.62885528E-16
  -23.1599998       1.27102122E-15
  -23.0400009       1.82666615E-15
  -22.9200001       1.83101439E-15
  -22.7999992       9.08265806E-16
  -22.6800003      -1.08330919E-15
  -22.5599995      -3.83452239E-15
  -22.4400005      -6.47240914E-15
  -22.3199997      -7.66736765E-15
  -22.2000008      -6.02524139E-15
  -22.0799999      -7.18866169E-16
  -21.9599991       7.82797611E-15
  -21.8400002       1.75067633E-14
  -21.7199993       2.46629702E-14
  -21.6000004       2.50024102E-14
  -21.4799995       1.51858964E-14
  -21.3600006      -5.31633453E-15
  -21.2399998      -3.28272701E-14
  -21.1200008      -5.93096806E-14
  -21.0000000      -7.39845400E-14
  -20.8799992      -6.66664396E-14
  -20.7600002      -3.20085789E-14
  -20.6399994       2.67909626E-14
  -20.5200005       9.64865937E-14
  -20.3999996       1.55728037E-13
  -20.2800007       1.80635983E-13
  -20.1599998       1.52797629E-13
  -20.0400009       6.72242752E-14
  -19.9200001      -6.27237249E-14
  -19.7999992      -2.05901526E-13
  -19.6800003      -3.20283920E-13
  -19.5599995      -3.64839560E-13
  -19.4400005      -3.12959240E-13
  -19.3199997      -1.62985307E-13
  -19.2000008       5.80931990E-14
  -19.0799999       2.99669740E-13
  -18.9599991       5.00238522E-13
  -18.8400002       6.04037165E-13
  -18.7199993       5.76400147E-13
  -18.6000004       4.13062271E-13
  -18.4799995       1.40881461E-13
  -18.3600006      -1.89452905E-13
  -18.2399998      -5.15489127E-13
  -18.1200008      -7.75527049E-13
  -18.0000000      -9.18149779E-13
  -17.8799992      -9.07719538E-13
  -17.7600002      -7.27308838E-13
  -17.6399994      -3.81736526E-13
  -17.5200005       9.76296545E-14
  -17.3999996       6.47555306E-13
  -17.2800007       1.17165934E-12
  -17.1599998       1.54925823E-12
  -17.0400009       1.65847013E-12
  -16.9200001       1.41204182E-12
  -16.7999992       7.96765540E-13
  -16.6800003      -9.87638655E-14
  -16.5599995      -1.08419220E-12
  -16.4400005      -1.90486103E-12
  -16.3199997      -2.31312257E-12
  -16.2000008      -2.15439016E-12
  -16.0799999      -1.43733246E-12
  -15.9600000      -3.56514975E-13
  -15.8400002       7.51829805E-13
  -15.7200003       1.51667361E-12
  -15.6000004       1.67049859E-12
  -15.4799995       1.16843026E-12
  -15.3599997       2.35714199E-13
  -15.2399998      -6.88981749E-13
  -15.1199999      -1.10943925E-12
  -15.0000000      -6.79522573E-13
  -14.8800001       6.15100310E-13
  -14.7600002       2.38203229E-12
  -14.6400003       3.90502084E-12
  -14.5200005       4.37948896E-12
  -14.3999996       3.23202771E-12
  -14.2799997       4.09060427E-13
  -14.1599998      -3.48722765E-12
  -14.0400000      -7.29689399E-12
  -13.9200001      -9.63601594E-12
  -13.8000002      -9.37597049E-12
  -13.6800003      -6.10764000E-12
  -13.5600004      -4.11859132E-13
  -13.4399996       6.19426082E-12
  -13.3199997       1.16609613E-11
  -13.1999998       1.40571452E-11
  -13.0799999       1.22615494E-11
  -12.9600000       6.44568513E-12
  -12.8400002      -1.85147427E-12
  -12.7200003      -1.01283617E-11
  -12.6000004      -1.57065454E-11
  -12.4799995      -1.66467326E-11
  -12.3599997      -1.24703503E-11
  -12.2399998      -4.40255514E-12
  -12.1199999       4.99451522E-12
  -12.0000000       1.27099928E-11
  -11.8800001       1.63964727E-11
  -11.7600002       1.52917453E-11
  -11.6400003       1.05674254E-11
  -11.5200005       4.90759039E-12
  -11.3999996       1.40586674E-12
  -11.2799997       2.15424141E-12
  -11.1599998       7.06901941E-12
  -11.0400000       1.34770710E-11
  -10.9200001       1.67536696E-11
  -10.8000002       1.19268762E-11
  -10.6800003      -4.22845526E-12
  -10.5600004      -3.13416723E-11
  -10.4399996      -6.45868012E-11
  -10.3199997      -9.52883189E-11
  -10.1999998      -1.12993427E-10
  -10.0799999      -1.08488031E-10
  -9.96000004      -7.68480210E-11
  -9.84000015      -1.95217384E-11
  -9.72000027       5.53127370E-11
  -9.60000038       1.34346187E-10
  -9.47999954       2.02291101E-10
  -9.35999966       2.45662934E-10
  -9.23999977       2.56033195E-10
  -9.11999989       2.31747704E-10
  -9.00000000       1.77590401E-10
  -8.88000011       1.02536944E-10
  -8.76000023       1.63604998E-11
  -8.64000034      -7.37829173E-11
  -8.52000046      -1.65673142E-10
  -8.39999962      -2.62511513E-10
  -8.27999973      -3.71456393E-10
  -8.15999985      -5.00741559E-10
  -8.03999996      -6.56375176E-10
  -7.92000008      -8.39544212E-10
  -7.80000019      -1.04560183E-09
  -7.67999983      -1.26498234E-09
  -7.55999994      -1.48574941E-09
  -7.44000006      -1.69695002E-09
  -7.32000017      -1.89170102E-09
  -7.19999981      -2.06903250E-09
  -7.07999992      -2.23393792E-09
  -6.96000004      -2.39566056E-09
  -6.84000015      -2.56480126E-09
  -6.71999979      -2.75019363E-09
  -6.59999990      -2.95650904E-09
  -6.48000002      -3.18330140E-09
  -6.36000013      -3.42569995E-09
  -6.23999977      -3.67642894E-09
  -6.11999989      -3.92843980E-09
  -6.00000000      -4.17726609E-09
  -5.88000011      -4.42236781E-09
  -5.76000023      -4.66709515E-09
  -5.63999987      -4.91738206E-09
  -5.51999998      -5.17972865E-09
  -5.40000010      -5.45924417E-09
  -5.28000021      -5.75850612E-09
  -5.15999985      -6.07766104E-09
  -5.03999996      -6.41573372E-09
  -4.92000008      -6.77262069E-09
  -4.80000019      -7.15096560E-09
  -4.67999983      -7.55710872E-09
  -4.55999994      -8.00064992E-09
  -4.44000006      -8.49267856E-09
  -4.32000017      -9.04328701E-09
  -4.19999981      -9.65927605E-09
  -4.07999992      -1.03429105E-08
  -3.96000004      -1.10921405E-08
  -3.83999991      -1.19020420E-08
  -3.72000003      -1.27667050E-08
  -3.59999990      -1.36805793E-08
  -3.48000002      -1.46385775E-08
  -3.35999990      -1.56349724E-08
  -3.24000001      -1.66618985E-08
  -3.11999989      -1.77088069E-08
  -3.00000000      -1.87641120E-08
  -2.88000011      -1.98194847E-08
  -2.75999999      -2.08760280E-08
  -2.64000010      -2.19504006E-08
  -2.51999998      -2.30783090E-08
  -2.40000010      -2.43132199E-08
  -2.27999997      -2.57194106E-08
  -2.16000009      -2.73603469E-08
  -2.03999996      -2.92852036E-08
  -1.91999996      -3.15172919E-08
  -1.79999995      -3.40479964E-08
  -1.67999995      -3.68383724E-08
  -1.55999994      -3.98283078E-08
  -1.44000006      -4.29509868E-08
  -1.32000005      -4.61486671E-08
  -1.20000005      -4.93855445E-08
  -1.08000004      -5.26543715E-08
 -0.959999979      -5.59753879E-08
 -0.839999974      -5.93884337E-08
 -0.720000029      -6.29409627E-08
 -0.600000024      -6.66756605E-08
 -0.479999989      -7.06212049E-08
 -0.360000014      -7.47883888E-08
 -0.239999995      -7.91723025E-08
 -0.119999997      -8.37591259E-08
  -1.11022302E-15  -8.85350815E-08
  0.119999997      -9.34946840E-08
  0.239999995      -9.86456428E-08
  0.360000014      -1.04009466E-07
  0.479999989      -1.09617886E-07
  0.600000024      -1.15506595E-07
  0.720000029      -1.21708595E-07
  0.839999974      -1.28249127E-07
  0.959999979      -1.35143637E-07
   1.08000004      -1.42398733E-07
   1.20000005      -1.50015580E-07
   1.32000005      -1.57993895E-07
   1.44000006      -1.66335198E-07
   1.55999994      -1.75044150E-07
   1.67999995      -1.84127643E-07
   1.79999995      -1.93592356E-07
   1.91999996      -2.03441900E-07
   2.03999996      -2.13674909E-07
   2.16000009      -2.24284804E-07
   2.27999997      -2.35261808E-07
   2.40000010      -2.46596358E-07
   2.51999998      -2.58283336E-07
   2.64000010      -2.70325529E-07
   2.75999999      -2.82735101E-07
   2.88000011      -2.95533255E-07
   3.00000000      -3.08747389E-07
   3.11999989      -3.22407118E-07
   3.24000001      -3.36540523E-07
   3.35999990      -3.51171309E-07
   3.48000002      -3.66317892E-07
   3.59999990      -3.81994170E-07
   3.72000003      -3.98210943E-07
   3.83999991      -4.14976427E-07
   3.96000004      -4.32295138E-07
   4.07999992      -4.50164436E-07
   4.19999981      -4.68570022E-07
   4.32000017      -4.87481600E-07
   4.44000006      -5.06852018E-07
   4.55999994      -5.26620283E-07
   4.67999983      -5.46720344E-07
   4.80000019      -5.67092002E-07
   4.92000008      -5.87692512E-07
   5.03999996      -6.08503910E-07
   5.15999985      -6.29534270E-07
   5.28000021      -6.50810591E-07
   5.40000010      -6.72366809E-07
   5.51999998      -6.94227992E-07
   5.63999987      -7.16397494E-07
   5.76000023      -7.38848485E-07
   5.88000011      -7.61523665E-07
   6.00000000      -7.84340841E-07
   6.11999989      -8.07202639E-07
   6.23999977      -8.30008105E-07
   6.36000013      -8.52661401E-07
   6.48000002      -8.75077944E-07
   6.59999990      -8.97186737E-07
   6.71999979      -9.18929800E-07
   6.84000015      -9.40259440E-07
   6.96000004      -9.61134560E-07
   7.07999992      -9.81515313E-07
   7.19999981      -1.00135640E-06
   7.32000017      -1.02060017E-06
   7.44000006      -1.03916852E-06
   7.55999994      -1.05695710E-06
   7.67999983      -1.07383266E-06
   7.80000019      -1.08963502E-06
   7.92000008      -1.10418330E-06
   8.03999996      -1.11728571E-06
   8.15999985      -1.12875091E-06
   8.27999973      -1.13839633E-06
   8.39999962      -1.14605484E-06
   8.52000046      -1.15157559E-06
   8.64000034      -1.15482078E-06
   8.76000023      -1.15565854E-06
   8.88000011      -1.15395312E-06
   9.00000000      -1.14955469E-06
   9.11999989      -1.14228794E-06
   9.23999977      -1.13194369E-06
   9.35999966      -1.11827376E-06
   9.47999954      -1.10098995E-06
   9.60000038      -1.07976894E-06
   9.72000027      -1.05426318E-06
   9.84000015      -1.02411445E-06
   9.96000004      -9.88969418E-07
   10.0799999      -9.48491049E-07
   10.1999998      -9.02366537E-07
   10.3199997      -8.50305923E-07
   10.4399996      -7.92034314E-07
   10.5600004      -7.27278632E-07
   10.6800003      -6.55752785E-07
   10.8000002      -5.77142828E-07
   10.9200001      -4.91097865E-07
   11.0400000      -3.97226273E-07
   11.1599998      -2.95098289E-07
   11.2799997      -1.84253835E-07
   11.3999996      -6.42132463E-08
   11.5200005       6.55108536E-08
   11.6400003       2.05404234E-07
   11.7600002       3.55944735E-07
   11.8800001       5.17602189E-07
   12.0000000       6.90841716E-07
   12.1199999       8.76133640E-07
   12.2399998       1.07396136E-06
   12.3599997       1.28483191E-06
   12.4799995       1.50927883E-06
   12.6000004       1.74786260E-06
   12.7200003       2.00116529E-06
   12.8400002       2.26978318E-06
   12.9600000       2.55432133E-06
   13.0799999       2.85538886E-06
   13.1999998       3.17359763E-06
   13.3199997       3.50956839E-06
   13.4399996       3.86393504E-06
   13.5600004       4.23734900E-06
   13.6800003       4.63048173E-06
   13.8000002       5.04402260E-06
   13.9200001       5.47867421E-06
   14.0400000       5.93514824E-06
   14.1599998       6.41415818E-06
   14.2799997       6.91642299E-06
   14.3999996       7.44266345E-06
   14.5200005       7.99361442E-06
   14.6400003       8.57002215E-06
   14.7600002       9.17264879E-06
   14.8800001       9.80227651E-06
   15.0000000       1.04596984E-05
   15.1199999       1.11457202E-05
   15.2399998       1.18611479E-05
   15.3599997       1.26067916E-05
   15.4799995       1.33834637E-05
   15.6000004       1.41919791E-05
   15.7200003       1.50331625E-05
   15.8400002       1.59078409E-05
   15.9600000       1.68168535E-05
   16.0799999       1.77610364E-05
   16.2000008       1.87412315E-05
   16.3199997       1.97582758E-05
   16.4400005       2.08130077E-05
   16.5599995       2.19062658E-05
   16.6800003       2.30388978E-05
   16.7999992       2.42117694E-05
   16.9200001       2.54257593E-05
   17.0400009       2.66817533E-05
   17.1599998       2.79806336E-05
   17.2800007       2.93232697E-05
   17.3999996       3.07104856E-05
   17.5200005       3.21430671E-05
   17.6399994       3.36217563E-05
   17.7600002       3.51472590E-05
   17.8799992       3.67202883E-05
   18.0000000       3.83415572E-05
   18.1200008       4.00118224E-05
   18.2399998       4.17318770E-05
   18.3600006       4.35025722E-05
   18.4799995       4.53247594E-05
   18.6000004       4.71992898E-05
   18.7199993       4.91269784E-05
   18.8400002       5.11085782E-05
   18.9599991       5.31447731E-05
   19.0799999       5.52361853E-05
   19.2000008       5.73833750E-05
   19.3199997       5.95868769E-05
   19.4400005       6.18472113E-05
   19.5599995       6.41648658E-05
   19.6800003       6.65403568E-05
   19.7999992       6.89741573E-05
   19.9200001       7.14667476E-05
   20.0400009       7.40185496E-05
   20.1599998       7.66299854E-05
   20.2800007       7.93014478E-05
   20.3999996       8.20333007E-05
   20.5200005       8.48258642E-05
   20.6399994       8.76794365E-05
   20.7600002       9.05942579E-05
   20.8799992       9.35705611E-05
   21.0000000       9.66084772E-05
   21.1200008       9.97081079E-05
   21.2399998       1.02869475E-04
   21.3600006       1.06092550E-04
   21.4799995       1.09377244E-04
   21.6000004       1.12723385E-04
   21.7199993       1.16130774E-04
   21.8400002       1.19599106E-04
   21.9599991       1.23128048E-04
   22.0799999       1.26717190E-04
   22.2000008       1.30366112E-04
   22.3199997       1.34074246E-04
   22.4400005       1.37841052E-04
   22.5599995       1.41665892E-04
   22.6800003       1.45548096E-04
   22.7999992       1.49486892E-04
   22.9200001       1.53481466E-04
   23.0400009       1.57530914E-04
   23.1599998       1.61634263E-04
   23.2800007       1.65790494E-04
   23.3999996       1.69998442E-04
   23.5200005       1.74256857E-04
   23.6399994       1.78564354E-04
   23.7600002       1.82919466E-04
   23.8799992       1.87320562E-04
   24.0000000       1.91765954E-04
   24.1200008       1.96253808E-04
   24.2399998       2.00782248E-04
   24.3600006       2.05349352E-04
   24.4799995       2.09953141E-04
   24.6000004       2.14591564E-04
   24.7199993       2.19262525E-04
   24.8400002       2.23963812E-04
   24.9599991       2.28693068E-04
   25.0799999       2.33447819E-04
   25.2000008       2.38225417E-04
   25.3199997       2.43023125E-04
   25.4400005       2.47838034E-04
   25.5599995       2.52667029E-04
   25.6800003       2.57507025E-04
   25.7999992       2.62354850E-04
   25.9200001       2.67207128E-04
   26.0400009       2.72060541E-04
   26.1599998       2.76911655E-04
   26.2800007       2.81757006E-04
   26.3999996       2.86593015E-04
   26.5200005       2.91415956E-04
   26.6399994       2.96222046E-04
   26.7600002       3.01007327E-04
   26.8799992       3.05767695E-04
   27.0000000       3.10498930E-04
   27.1200008       3.15196696E-04
   27.2399998       3.19856539E-04
   27.3600006       3.24473891E-04
   27.4799995       3.29044153E-04
   27.6000004       3.33562639E-04
   27.7199993       3.38024634E-04
   27.8400002       3.42425366E-04
   27.9599991       3.46759916E-04
   28.0799999       3.51023395E-04
   28.2000008       3.55210766E-04
   28.3199997       3.59316968E-04
   28.4400005       3.63336789E-04
   28.5599995       3.67265049E-04
   28.6800003       3.71096481E-04
   28.7999992       3.74825642E-04
   28.9200001       3.78447236E-04
   29.0400009       3.81955819E-04
   29.1599998       3.85345949E-04
   29.2800007       3.88612098E-04
   29.3999996       3.91748792E-04
   29.5200005       3.94750357E-04
   29.6399994       3.97611235E-04
   29.7600002       4.00325895E-04
   29.8799992       4.02888778E-04
   30.0000000       4.05294471E-04
   30.1200008       4.07537445E-04
   30.2399998       4.09612403E-04
   30.3600006       4.11513931E-04
   30.4799995       4.13236674E-04
   30.6000004       4.14775364E-04
   30.7199993       4.16124647E-04
   30.8400002       4.17279283E-04
   30.9599991       4.18234151E-04
   31.0799999       4.18984127E-04
   31.2000008       4.19524265E-04
   31.3199997       4.19849821E-04
   31.4400005       4.19956050E-04
   31.5599995       4.19838354E-04
   31.6800003       4.19492193E-04
   31.7999992       4.18913143E-04
   31.9200001       4.18096810E-04
   32.0400009       4.17039118E-04
   32.1599998       4.15735907E-04
   32.2799988       4.14183480E-04
   32.4000015       4.12378169E-04
   32.5200005       4.10316599E-04
   32.6399994       4.07995656E-04
   32.7599983       4.05412371E-04
   32.8800011       4.02564096E-04
   33.0000000       3.99448356E-04
   33.1199989       3.96062882E-04
   33.2400017       3.92405607E-04
   33.3600006       3.88474611E-04
   33.4799995       3.84268205E-04
   33.5999985       3.79785022E-04
   33.7200012       3.75023927E-04
   33.8400002       3.69984074E-04
   33.9599991       3.64665029E-04
   34.0800018       3.59066500E-04
   34.2000008       3.53188720E-04
   34.3199997       3.47032037E-04
   34.4399986       3.40597035E-04
   34.5600014       3.33884760E-04
   34.6800003       3.26896406E-04
   34.7999992       3.19633546E-04
   34.9199982       3.12098098E-04
   35.0400009       3.04292247E-04
   35.1599998       2.96218583E-04
   35.2799988       2.87880044E-04
   35.4000015       2.79279921E-04
   35.5200005       2.70421762E-04
   35.6399994       2.61309469E-04
   35.7599983       2.51947320E-04
   35.8800011       2.42339869E-04
   36.0000000       2.32492064E-04
   36.1199989       2.22409115E-04
   36.2400017       2.12096580E-04
   36.3600006       2.01560280E-04
   36.4799995       1.90806400E-04
   36.5999985       1.79841372E-04
   36.7200012       1.68672021E-04
   36.8400002       1.57305520E-04
   36.9599991       1.45749334E-04
   37.0800018       1.34011338E-04
   37.2000008       1.22099707E-04
   37.3199997       1.10022964E-04
   37.4399986       9.77898744E-05
   37.5600014       8.54094469E-05
   37.6800003       7.28908926E-05
   37.7999992       6.02435648E-05
   37.9199982       4.74770059E-05
   38.0400009       3.46009147E-05
   38.1599998       2.16252574E-05
   38.2799988       8.56026327E-06
   38.4000015      -4.58356135E-06
   38.5200005      -1.77954298E-05
   38.6399994      -3.10642972E-05
   38.7599983      -4.43788958E-05
   38.8800011      -5.77277970E-05
   39.0000000      -7.10994500E-05
   39.1199989      -8.44822280E-05
   39.2400017      -9.78644603E-05
   39.3600006      -1.11234403E-04
   39.4799995      -1.24580300E-04
   39.5999985      -1.37890340E-04
   39.7200012      -1.51152664E-04
   39.8400002      -1.64355413E-04
   39.9599991      -1.77486654E-04
   40.0800018      -1.90534469E-04
   40.2000008      -2.03487027E-04
   40.3199997      -2.16332453E-04
   40.4399986      -2.29058889E-04
   40.5600014      -2.41654547E-04
   40.6800003      -2.54107668E-04
   40.7999992      -2.66406540E-04
   40.9199982      -2.78539606E-04
   41.0400009      -2.90495460E-04
   41.1599998      -3.02262924E-04
   41.2799988      -3.13831086E-04
   41.4000015      -3.25189234E-04
   41.5200005      -3.36326950E-04
   41.6399994      -3.47233959E-04
   41.7599983      -3.57900310E-04
   41.8800011      -3.68316221E-04
   42.0000000      -3.78472119E-04
   42.1199989      -3.88358574E-04
   42.2400017      -3.97966418E-04
   42.3600006      -4.07286949E-04
   42.4799995      -4.16311581E-04
   42.5999985      -4.25032311E-04
   42.7200012      -4.33441397E-04
   42.8400002      -4.41531563E-04
   42.9599991      -4.49295971E-04
   43.0800018      -4.56728187E-04
   43.2000008      -4.63822245E-04
   43.3199997      -4.70572559E-04
   43.4399986      -4.76973917E-04
   43.5600014      -4.83021489E-04
   43.6800003      -4.88710823E-04
   43.7999992      -4.94038046E-04
   43.9199982      -4.98999492E-04
   44.0400009      -5.03592019E-04
   44.1599998      -5.07812947E-04
   44.2799988      -5.11660182E-04
   44.4000015      -5.15132153E-04
   44.5200005      -5.18227578E-04
   44.6399994      -5.20945992E-04
   44.7599983      -5.23287279E-04
   44.8800011      -5.25251729E-04
   45.0000000      -5.26840158E-04
   45.1199989      -5.28053788E-04
   45.2400017      -5.28894365E-04
   45.3600006      -5.29363926E-04
   45.4799995      -5.29464975E-04
   45.5999985      -5.29200595E-04
   45.7200012      -5.28574281E-04
   45.8400002      -5.27589873E-04
   45.9599991      -5.26251795E-04
   46.0800018      -5.24564763E-04
   46.2000008      -5.22534247E-04
   46.3199997      -5.20165777E-04
   46.4399986      -5.17465640E-04
   46.5600014      -5.14440413E-04
   46.6800003      -5.11096849E-04
   46.7999992      -5.07442106E-04
   46.9199982      -5.03483752E-04
   47.0400009      -4.99229645E-04
   47.1599998      -4.94687876E-04
   47.2799988      -4.89867060E-04
   47.4000015      -4.84775810E-04
   47.5200005      -4.79423295E-04
   47.6399994      -4.73818713E-04
   47.7599983      -4.67971666E-04
   47.8800011      -4.61892021E-04
   48.0000000      -4.55589790E-04
   48.1199989      -4.49075189E-04
   48.2400017      -4.42358694E-04
   48.3600006      -4.35450871E-04
   48.4799995      -4.28362429E-04
   48.5999985      -4.21104312E-04
   48.7200012      -4.13687376E-04
   48.8400002      -4.06122679E-04
   48.9599991      -3.98421253E-04
   49.0800018      -3.90594156E-04
   49.2000008      -3.82652535E-04
   49.3199997      -3.74607393E-04
   49.4399986      -3.66469816E-04
   49.5600014      -3.58250807E-04
   49.6800003      -3.49961338E-04
   49.7999992      -3.41612409E-04
   49.9199982      -3.33214906E-04
   50.0400009      -3.24779801E-04
   50.1599998      -3.16317863E-04
   50.2799988      -3.07839713E-04
   50.4000015      -2.99355830E-04
   50.5200005      -2.90876516E-04
   50.6399994      -2.82411784E-04
   50.7599983      -2.73971469E-04
   50.8800011      -2.65565235E-04
   51.0000000      -2.57202511E-04
   51.1199989      -2.48892611E-04
   51.2400017      -2.40644469E-04
   51.3600006      -2.32466889E-04
   51.4799995      -2.24368385E-04
   51.5999985      -2.16357075E-04
   51.7200012      -2.08440819E-04
   51.8400002      -2.00627153E-04
   51.9599991      -1.92923282E-04
   52.0800018      -1.85336190E-04
   52.2000008      -1.77872469E-04
   52.3199997      -1.70538508E-04
   52.4399986      -1.63340417E-04
   52.5600014      -1.56283961E-04
   52.6800003      -1.49374653E-04
   52.7999992      -1.42617617E-04
   52.9199982      -1.36017654E-04
   53.0400009      -1.29579159E-04
   53.1599998      -1.23306090E-04
   53.2799988      -1.17202006E-04
   53.4000015      -1.11270048E-04
   53.5200005      -1.05512954E-04
   53.6399994      -9.99331096E-05
   53.7599983      -9.45326101E-05
   53.8800011      -8.93132819E-05
   54.0000000      -8.42767113E-05
   54.1199989      -7.94242878E-05
   54.2400017      -7.47571248E-05
   54.3600006      -7.02760517E-05
   54.4799995      -6.59815705E-05
   54.5999985      -6.18737977E-05
   54.7200012      -5.79524458E-05
   54.8400002      -5.42168273E-05
   54.9599991      -5.06659053E-05
   55.0800018      -4.72983374E-05
   55.2000008      -4.41125158E-05
   55.3199997      -4.11066103E-05
   55.4399986      -3.82786384E-05
   55.5600014      -3.56264245E-05
   55.6800003      -3.31476367E-05
   55.7999992      -3.08397539E-05
   55.9199982      -2.87000312E-05
   56.0400009      -2.67254854E-05
   56.1599998      -2.49128861E-05
   56.2799988      -2.32587372E-05
   56.4000015      -2.17593079E-05
   56.5200005      -2.04106746E-05
   56.6399994      -1.92087664E-05
   56.7599983      -1.81494142E-05
   56.8800011      -1.72283853E-05
   57.0000000      -1.64414105E-05
   57.1199989      -1.57841805E-05
   57.2400017      -1.52523235E-05
   57.3600006      -1.48413928E-05
   57.4799995      -1.45468503E-05
   57.5999985      -1.43640518E-05
   57.7200012      -1.42882573E-05
   57.8400002      -1.43146481E-05
   57.9599991      -1.44383448E-05
   58.0800018      -1.46544417E-05
   58.2000008      -1.49580364E-05
   58.3199997      -1.53442506E-05
   58.4399986      -1.58082530E-05
   58.5600014      -1.63452478E-05
   58.6800003      -1.69504929E-05
   58.7999992      -1.76192752E-05
   58.9199982      -1.83469256E-05
   59.0400009      -1.91288109E-05
   59.1599998      -1.99603546E-05
   59.2799988      -2.08370602E-05
   59.4000015      -2.17545257E-05
   59.5200005      -2.27084420E-05
   59.6399994      -2.36945925E-05
   59.7599983      -2.47088192E-05
   59.8800011      -2.57470165E-05
   60.0000000      -2.68051317E-05
   60.1199989      -2.78791813E-05
   60.2400017      -2.89653108E-05
   60.3600006      -3.00598440E-05
   60.4799995      -3.11593030E-05
   60.5999985      -3.22604174E-05
   60.7200012      -3.33600692E-05
   60.8400002      -3.44552391E-05
   60.9599991      -3.55429693E-05
   61.0800018      -3.66203130E-05
   61.2000008      -3.76843818E-05
   61.3199997      -3.87323817E-05
   61.4399986      -3.97617005E-05
   61.5600014      -4.07699335E-05
   61.6800003      -4.17549199E-05
   61.7999992      -4.27146842E-05
   61.9199982      -4.36474111E-05
   62.0400009      -4.45513760E-05
   62.1599998      -4.54249166E-05
   62.2799988      -4.62664575E-05
   62.4000015      -4.70745217E-05
   62.5200005      -4.78477705E-05
   62.6399994      -4.85850360E-05
   62.7599983      -4.92853178E-05
   62.8800011      -4.99477428E-05
   63.0000000      -5.05715507E-05
   63.1199989      -5.11560575E-05
   63.2400017      -5.17006556E-05
   63.3600006      -5.22048249E-05
   63.4799995      -5.26681542E-05
   63.5999985      -5.30903526E-05
   63.7200012      -5.34712635E-05
   63.8400002      -5.38108507E-05
   63.9599991      -5.41091831E-05
   64.0800018      -5.43664391E-05
   64.1999969      -5.45828771E-05
   64.3199997      -5.47588352E-05
   64.4400024      -5.48947573E-05
   64.5599976      -5.49911529E-05
   64.6800003      -5.50486002E-05
   64.8000031      -5.50677323E-05
   64.9199982      -5.50492041E-05
   65.0400009      -5.49936885E-05
   65.1600037      -5.49018660E-05
   65.2799988      -5.47744603E-05
   65.4000015      -5.46122392E-05
   65.5199966      -5.44160539E-05
   65.6399994      -5.41868249E-05
   65.7600021      -5.39255707E-05
   65.8799973      -5.36334010E-05
   66.0000000      -5.33114726E-05
   66.1200027      -5.29609715E-05
   66.2399979      -5.25830837E-05
   66.3600006      -5.21789771E-05
   66.4800034      -5.17497792E-05
   66.5999985      -5.12965926E-05
   66.7200012      -5.08204794E-05
   66.8399963      -5.03225092E-05
   66.9599991      -4.98037771E-05
   67.0800018      -4.92653962E-05
   67.1999969      -4.87085163E-05
   67.3199997      -4.81343122E-05
   67.4400024      -4.75439738E-05
   67.5599976      -4.69386796E-05
   67.6800003      -4.63196011E-05
   67.8000031      -4.56878952E-05
   67.9199982      -4.50447078E-05
   68.0400009      -4.43911886E-05
   68.1600037      -4.37284762E-05
   68.2799988      -4.30576874E-05
   68.4000015      -4.23798992E-05
   68.5199966      -4.16961375E-05
   68.6399994      -4.10073735E-05
   68.7600021      -4.03145168E-05
   68.8799973      -3.96184478E-05
   69.0000000      -3.89200286E-05
   69.1200027      -3.82201106E-05
   69.2399979      -3.75195377E-05
   69.3600006      -3.68191322E-05
   69.4800034      -3.61196726E-05
   69.5999985      -3.54218864E-05
   69.7200012      -3.47264649E-05
   69.8399963      -3.40340666E-05
   69.9599991      -3.33453499E-05
   70.0800018      -3.26609661E-05
   70.1999969      -3.19815736E-05
   70.3199997      -3.13078235E-05
   70.4400024      -3.06403163E-05
   70.5599976      -2.99795993E-05
   70.6800003      -2.93261601E-05
   70.8000031      -2.86804225E-05
   70.9199982      -2.80427666E-05
   71.0400009      -2.74135473E-05
   71.1600037      -2.67930955E-05
   71.2799988      -2.61817131E-05
   71.4000015      -2.55796676E-05
   71.5199966      -2.49871737E-05
   71.6399994      -2.44044149E-05
   71.7600021      -2.38315552E-05
   71.8799973      -2.32687744E-05
   72.0000000      -2.27162855E-05
   72.1200027      -2.21743376E-05
   72.2399979      -2.16431854E-05
   72.3600006      -2.11230599E-05
   72.4800034      -2.06140976E-05
   72.5999985      -2.01163366E-05
   72.7200012      -1.96297115E-05