  -30.0000000       0.00000000    
  -29.8799992       0.00000000    
  -29.7600002       0.00000000    
  -29.6399994       0.00000000    
  -29.5200005       0.00000000    
  -29.3999996       3.81211921E-23
  -29.2800007       1.99834699E-22
  -29.1599998       3.34492347E-22
  -29.0400009      -4.55234841E-22
  -28.9200001      -3.40679424E-21
  -28.7999992      -7.32313902E-21
  -28.6800003      -4.70344024E-21
  -28.5599995       1.71331982E-20
  -28.4400005       6.34038334E-20
  -28.3199997       1.11896663E-19
  -28.2000008       1.07661402E-19
  -28.0799999      -7.71381818E-22
  -27.9599991      -1.86147420E-19
  -27.8400002      -2.88184349E-19
  -27.7199993      -7.61399785E-20
  -27.6000004       5.26338436E-19
  -27.4799995       1.15873838E-18
  -27.3600006       9.46610397E-19
  -27.2399998      -1.10325069E-18
  -27.1200008      -5.22389993E-18
  -27.0000000      -9.93638717E-18
  -26.8799992      -1.17323270E-17
  -26.7600002      -5.97518134E-18
  -26.6399994       1.09538317E-17
  -26.5200005       3.88731709E-17
  -26.3999996       7.12418104E-17
  -26.2800007       9.35072758E-17
  -26.1599998       8.30576751E-17
  -26.0400009       1.24511850E-17
  -25.9200001      -1.40700947E-16
  -25.7999992      -3.73578137E-16
  -25.6800003      -6.28766692E-16
  -25.5599995      -7.68088312E-16
  -25.4400005      -5.76483795E-16
  -25.3199997       1.70825277E-16
  -25.2000008       1.56082666E-15
  -25.0799999       3.34449731E-15
  -24.9599991       4.78412001E-15
  -24.8400002       4.69391482E-15
  -24.7199993       1.80847887E-15
  -24.6000004      -4.50266452E-15
  -24.4799995      -1.33672734E-14
  -24.3600006      -2.18117930E-14
  -24.2399998      -2.49687356E-14
  -24.1200008      -1.74876627E-14
  -24.0000000       3.90394267E-15
  -23.8799992       3.74134859E-14
  -23.7600002       7.41169685E-14
  -23.6399994       9.83748063E-14
  -23.5200005       9.17909750E-14
  -23.3999996       4.05028624E-14
  -23.2800007      -5.61411981E-14
  -23.1599998      -1.78977831E-13
  -23.0400009      -2.88440468E-13
  -22.9200001      -3.32753356E-13
  -22.7999992      -2.64785454E-13
  -22.6800003      -6.35618877E-14
  -22.5599995       2.47024867E-13
  -22.4400005       5.91127136E-13
  -22.3199997       8.52323529E-13
  -22.2000008       9.04843095E-13
  -22.0799999       6.58335636E-13
  -21.9599991       1.02616944E-13
  -21.8400002      -6.64952089E-13
  -21.7199993      -1.44462155E-12
  -21.6000004      -1.97840182E-12
  -21.4799995      -2.02631857E-12
  -21.3600006      -1.45413087E-12
  -21.2399998      -3.02996126E-13
  -21.1200008       1.18795316E-12
  -21.0000000       2.62358386E-12
  -20.8799992       3.55638002E-12
  -20.7600002       3.62574987E-12
  -20.6399994       2.68963280E-12
  -20.5200005       9.00781240E-13
  -20.3999996      -1.30712010E-12
  -20.2800007      -3.33064566E-12
  -20.1599998      -4.57787107E-12
  -20.0400009      -4.66334783E-12
  -19.9200001      -3.54868435E-12
  -19.7999992      -1.57291107E-12
  -19.6800003       6.48214230E-13
  -19.5599995       2.42782769E-12
  -19.4400005       3.25020783E-12
  -19.3199997       2.96116950E-12
  -19.2000008       1.83045311E-12
  -19.0799999       4.53486885E-13
  -18.9599991      -4.79533676E-13
  -18.8400002      -4.64545611E-13
  -18.7199993       5.94258692E-13
  -18.6000004       2.31387500E-12
  -18.4799995       3.95125556E-12
  -18.3600006       4.67485816E-12
  -18.2399998       3.88850497E-12
  -18.1200008       1.48108587E-12
  -18.0000000      -2.09914573E-12
  -17.8799992      -5.97859349E-12
  -17.7600002      -9.14942341E-12
  -17.6399994      -1.08022636E-11
  -17.5200005      -1.05691298E-11
  -17.3999996      -8.58563828E-12
  -17.2800007      -5.36123880E-12
  -17.1599998      -1.52961368E-12
  -17.0400009       2.39933247E-12
  -16.9200001       6.17210233E-12
  -16.7999992       9.75584457E-12
  -16.6800003       1.31659466E-11
  -16.5599995       1.62564528E-11
  -16.4400005       1.85901659E-11
  -16.3199997       1.94638802E-11
  -16.2000008       1.80850491E-11
  -16.0799999       1.38202436E-11
  -15.9600000       6.40322604E-12
  -15.8400002      -3.98028398E-12
  -15.7200003      -1.67380172E-11
  -15.6000004      -3.09731164E-11
  -15.4799995      -4.55327616E-11
  -15.3599997      -5.89304161E-11
  -15.2399998      -6.91677618E-11
  -15.1199999      -7.35948733E-11
  -15.0000000      -6.90040941E-11
  -14.8800001      -5.21040884E-11
  -14.7600002      -2.03610219E-11
  -14.6400003       2.70198985E-11
  -14.5200005       8.83672580E-11
  -14.3999996       1.59487951E-10
  -14.2799997       2.34525704E-10
  -14.1599998       3.07637749E-10
  -14.0400000       3.75012021E-10
  -13.9200001       4.36487790E-10
  -13.8000002       4.96048480E-10
  -13.6800003       5.60775204E-10
  -13.5600004       6.38403719E-10
  -13.4399996       7.34215688E-10
  -13.3199997       8.48375870E-10
  -13.1999998       9.74808345E-10
  -13.0799999       1.10224752E-09
  -12.9600000       1.21733201E-09
  -12.8400002       1.30882116E-09
  -12.7200003       1.37150880E-09
  -12.6000004       1.40842527E-09
  -12.4799995       1.43046708E-09
  -12.3599997       1.45350432E-09
  -12.2399998       1.49392454E-09
  -12.1199999       1.56413926E-09
  -12.0000000       1.66957470E-09
  -11.8800001       1.80809434E-09
  -11.7600002       1.97190730E-09
  -11.6400003       2.15113438E-09
  -11.5200005       2.33769826E-09
  -11.3999996       2.52821364E-09
  -11.2799997       2.72503953E-09
  -11.1599998       2.93536950E-09
  -11.0400000       3.16887849E-09
  -10.9200001       3.43479822E-09
  -10.8000002       3.73927733E-09
  -10.6800003       4.08364409E-09
  -10.5600004       4.46384441E-09
  -10.4399996       4.87110707E-09
  -10.3199997       5.29374411E-09
  -10.1999998       5.71992986E-09
  -10.0799999       6.14114182E-09
  -9.96000004       6.55568888E-09
  -9.84000015       6.97145097E-09
  -9.72000027       7.40681916E-09
  -9.60000038       7.88904586E-09
  -9.47999954       8.44985681E-09
  -9.35999966       9.11907438E-09
  -9.23999977       9.91790294E-09
  -9.11999989       1.08538787E-08
  -9.00000000       1.19192505E-08
  -8.88000011       1.30934943E-08
  -8.76000023       1.43493972E-08
  -8.64000034       1.56608273E-08
  -8.52000046       1.70098069E-08
  -8.39999962       1.83906828E-08
  -8.27999973       1.98103223E-08
  -8.15999985       2.12845634E-08
  -8.03999996       2.28325074E-08
  -7.92000008       2.44707596E-08
  -7.80000019       2.62096833E-08
  -7.67999983       2.80528134E-08
  -7.55999994       2.99994660E-08
  -7.44000006       3.20494244E-08
  -7.32000017       3.42079218E-08
  -7.19999981       3.64890411E-08
  -7.07999992       3.89161485E-08
  -6.96000004       4.15188914E-08
  -6.84000015       4.43274715E-08
  -6.71999979       4.73658801E-08
  -6.59999990       5.06463991E-08
  -6.48000002       5.41674865E-08
  -6.36000013       5.79164094E-08
  -6.23999977       6.18763565E-08
  -6.11999989       6.60362574E-08
  -6.00000000       7.04002829E-08
  -5.88000011       7.49935865E-08
  -5.76000023       7.98620619E-08
  -5.63999987       8.50654160E-08
  -5.51999998       9.06653455E-08
  -5.40000010       9.67121920E-08
  -5.28000021       1.03234001E-07
  -5.15999985       1.10231355E-07
  -5.03999996       1.17679306E-07
  -4.92000008       1.25536005E-07
  -4.80000019       1.33755577E-07
  -4.67999983       1.42302341E-07
  -4.55999994       1.51163604E-07
  -4.44000006       1.60358397E-07
  -4.32000017       1.69940932E-07
  -4.19999981       1.79997357E-07
  -4.07999992       1.90635689E-07
  -3.96000004       2.01969598E-07
  -3.83999991       2.14098435E-07
  -3.72000003       2.27088009E-07
  -3.59999990       2.40957490E-07
  -3.48000002       2.55678060E-07
  -3.35999990       2.71185456E-07
  -3.24000001       2.87405527E-07
  -3.11999989       3.04285720E-07
  -3.00000000       3.21822739E-07
  -2.88000011       3.40077150E-07
  -2.75999999       3.59168411E-07
  -2.64000010       3.79250992E-07
  -2.51999998       4.00479479E-07
  -2.40000010       4.22974125E-07
  -2.27999997       4.46798481E-07
  -2.16000009       4.71957208E-07
  -2.03999996       4.98413328E-07
  -1.91999996       5.26117958E-07
  -1.79999995       5.55041083E-07
  -1.67999995       5.85193163E-07
  -1.55999994       6.16630018E-07
  -1.44000006       6.49443336E-07
  -1.32000005       6.83742201E-07
  -1.20000005       7.19634443E-07
  -1.08000004       7.57215957E-07
 -0.959999979       7.96570248E-07
 -0.839999974       8.37776270E-07
 -0.720000029       8.80918719E-07
 -0.600000024       9.26094344E-07
 -0.479999989       9.73411147E-07
 -0.360000014       1.02297952E-06
 -0.239999995       1.07490018E-06
 -0.119999997       1.12925363E-06
  -1.11022302E-15   1.18609682E-06
  0.119999997       1.24546784E-06
  0.239999995       1.30739693E-06
  0.360000014       1.37192114E-06
  0.479999989       1.43909699E-06
  0.600000024       1.50900541E-06
  0.720000029       1.58175146E-06
  0.839999974       1.65745519E-06
  0.959999979       1.73623960E-06
   1.08000004       1.81822020E-06
   1.20000005       1.90349715E-06
   1.32000005       1.99215469E-06
   1.44000006       2.08426627E-06
   1.55999994       2.17990510E-06
   1.67999995       2.27915325E-06
   1.79999995       2.38210964E-06
   1.91999996       2.48889182E-06
   2.03999996       2.59963190E-06
   2.16000009       2.71446811E-06
   2.27999997       2.83353506E-06
   2.40000010       2.95695577E-06
   2.51999998       3.08483845E-06
   2.64000010       3.21727680E-06
   2.75999999       3.35435789E-06
   2.88000011       3.49616835E-06
   3.00000000       3.64280390E-06
   3.11999989       3.79437370E-06
   3.24000001       3.95100187E-06
   3.35999990       4.11282781E-06
   3.48000002       4.27999885E-06
   3.59999990       4.45266278E-06
   3.72000003       4.63096058E-06
   3.83999991       4.81501547E-06
   3.96000004       5.00492706E-06
   4.07999992       5.20076946E-06
   4.19999981       5.40259680E-06
   4.32000017       5.61045590E-06
   4.44000006       5.82439543E-06
   4.55999994       6.04448132E-06
   4.67999983       6.27079453E-06
   4.80000019       6.50342645E-06
   4.92000008       6.74246212E-06
   5.03999996       6.98796339E-06
   5.15999985       7.23995572E-06
   5.28000021       7.49843184E-06
   5.40000010       7.76336583E-06
   5.51999998       8.03473540E-06
   5.63999987       8.31254783E-06
   5.76000023       8.59684951E-06
   5.88000011       8.88771956E-06
   6.00000000       9.18524256E-06
   6.11999989       9.48947854E-06
   6.23999977       9.80043114E-06
   6.36000013       1.01180258E-05
   6.48000002       1.04421133E-05
   6.59999990       1.07724891E-05
   6.71999979       1.11089239E-05
   6.84000015       1.14511904E-05
   6.96000004       1.17990903E-05
   7.07999992       1.21524654E-05
   7.19999981       1.25111874E-05
   7.32000017       1.28751526E-05
   7.44000006       1.32442619E-05
   7.55999994       1.36184099E-05
   7.67999983       1.39974654E-05
   7.80000019       1.43812576E-05
   7.92000008       1.47695619E-05
   8.03999996       1.51620889E-05
   8.15999985       1.55584694E-05
   8.27999973       1.59582614E-05
   8.39999962       1.63609639E-05
   8.52000046       1.67660237E-05
   8.64000034       1.71728843E-05
   8.76000023       1.75809928E-05
   8.88000011       1.79898288E-05
   9.00000000       1.83989032E-05
   9.11999989       1.88077447E-05
   9.23999977       1.92158750E-05
   9.35999966       1.96227902E-05
   9.47999954       2.00279228E-05
   9.60000038       2.04306289E-05
   9.72000027       2.08301808E-05
   9.84000015       2.12257746E-05
   9.96000004       2.16165463E-05
   10.0799999       2.20015791E-05
   10.1999998       2.23799307E-05
   10.3199997       2.27506389E-05
   10.4399996       2.31127215E-05
   10.5600004       2.34651779E-05
   10.6800003       2.38069806E-05
   10.8000002       2.41370726E-05
   10.9200001       2.44543589E-05
   11.0400000       2.47577045E-05
   11.1599998       2.50459325E-05
   11.2799997       2.53178187E-05
   11.3999996       2.55720952E-05
   11.5200005       2.58074542E-05
   11.6400003       2.60225388E-05
   11.7600002       2.62159374E-05
   11.8800001       2.63861803E-05
   12.0000000       2.65317540E-05
   12.1199999       2.66510779E-05
   12.2399998       2.67425330E-05
   12.3599997       2.68044660E-05
   12.4799995       2.68351923E-05
   12.6000004       2.68329986E-05
   12.7200003       2.67961441E-05
   12.8400002       2.67228697E-05
   12.9600000       2.66113930E-05
   13.0799999       2.64598984E-05
   13.1999998       2.62665380E-05
   13.3199997       2.60294273E-05
   13.4399996       2.57466127E-05
   13.5600004       2.54160823E-05
   13.6800003       2.50357662E-05
   13.8000002       2.46035397E-05
   13.9200001       2.41172511E-05
   14.0400000       2.35747630E-05
   14.1599998       2.29739580E-05
   14.2799997       2.23127590E-05
   14.3999996       2.15891214E-05
   14.5200005       2.08010060E-05
   14.6400003       1.99463320E-05
   14.7600002       1.90229639E-05
   14.8800001       1.80286752E-05
   15.0000000       1.69611594E-05
   15.1199999       1.58180592E-05
   15.2399998       1.45970162E-05
   15.3599997       1.32956930E-05
   15.4799995       1.19118240E-05
   15.6000004       1.04432111E-05
   15.7200003       8.88772411E-06
   15.8400002       7.24328766E-06
   15.9600000       5.50785671E-06
   16.0799999       3.67940220E-06
   16.2000008       1.75592152E-06
   16.3199997      -2.64563198E-07
   16.4400005      -2.38399707E-06
   16.5599995      -4.60429010E-06
   16.6800003      -6.92733147E-06
   16.7999992      -9.35498701E-06
   16.9200001      -1.18891021E-05
   17.0400009      -1.45314898E-05
   17.1599998      -1.72839027E-05
   17.2800007      -2.01479997E-05
   17.3999996      -2.31253125E-05
   17.5200005      -2.62172471E-05
   17.6399994      -2.94250840E-05
   17.7600002      -3.27499874E-05
   17.8799992      -3.61930288E-05
   18.0000000      -3.97551994E-05
   18.1200008      -4.34374015E-05
   18.2399998      -4.72404754E-05
   18.3600006      -5.11651415E-05
   18.4799995      -5.52120109E-05
   18.6000004      -5.93815712E-05
   18.7199993      -6.36741825E-05
   18.8400002      -6.80900775E-05
   18.9599991      -7.26293802E-05
   19.0799999      -7.72920685E-05
   19.2000008      -8.20779751E-05
   19.3199997      -8.69867436E-05
   19.4400005      -9.20178718E-05
   19.5599995      -9.71706613E-05
   19.6800003      -1.02444188E-04
   19.7999992      -1.07837368E-04
   19.9200001      -1.13348993E-04
   20.0400009      -1.18977681E-04
   20.1599998      -1.24721919E-04
   20.2800007      -1.30580011E-04
   20.3999996      -1.36550094E-04
   20.5200005      -1.42630117E-04
   20.6399994      -1.48817839E-04
   20.7600002      -1.55110829E-04
   20.8799992      -1.61506468E-04
   21.0000000      -1.68001934E-04
   21.1200008      -1.74594272E-04
   21.2399998      -1.81280295E-04
   21.3600006      -1.88056700E-04
   21.4799995      -1.94919965E-04
   21.6000004      -2.01866351E-04
   21.7199993      -2.08891855E-04
   21.8400002      -2.15992332E-04
   21.9599991      -2.23163370E-04
   22.0799999      -2.30400416E-04
   22.2000008      -2.37698769E-04
   22.3199997      -2.45053496E-04
   22.4400005      -2.52459635E-04
   22.5599995      -2.59911991E-04
   22.6800003      -2.67405383E-04
   22.7999992      -2.74934340E-04
   22.9200001      -2.82493333E-04
   23.0400009      -2.90076598E-04
   23.1599998      -2.97678285E-04
   23.2800007      -3.05292284E-04
   23.3999996      -3.12912365E-04
   23.5200005      -3.20532097E-04
   23.6399994      -3.28144961E-04
   23.7600002      -3.35744320E-04
   23.8799992      -3.43323365E-04
   24.0000000      -3.50875198E-04
   24.1200008      -3.58392892E-04
   24.2399998      -3.65869433E-04
   24.3600006      -3.73297778E-04
   24.4799995      -3.80670885E-04
   24.6000004      -3.87981505E-04
   24.7199993      -3.95222625E-04
   24.8400002      -4.02387057E-04
   24.9599991      -4.09467611E-04
   25.0799999      -4.16457158E-04
   25.2000008      -4.23348509E-04
   25.3199997      -4.30134474E-04
   25.4400005      -4.36807692E-04
   25.5599995      -4.43360885E-04
   25.6800003      -4.49786778E-04
   25.7999992      -4.56077978E-04
   25.9200001      -4.62227326E-04
   26.0400009      -4.68227721E-04
   26.1599998      -4.74072236E-04
   26.2800007      -4.79754177E-04
   26.3999996      -4.85266966E-04
   26.5200005      -4.90604260E-04
   26.6399994      -4.95759770E-04
   26.7600002      -5.00727270E-04
   26.8799992      -5.05500648E-04
   27.0000000      -5.10073849E-04
   27.1200008      -5.14441053E-04
   27.2399998      -5.18596440E-04
   27.3600006      -5.22534654E-04
   27.4799995      -5.26250398E-04
   27.6000004      -5.29738725E-04
   27.7199993      -5.32994920E-04
   27.8400002      -5.36014384E-04
   27.9599991      -5.38792752E-04
   28.0799999      -5.41325891E-04
   28.2000008      -5.43609960E-04
   28.3199997      -5.45641349E-04
   28.4400005      -5.47416799E-04
   28.5599995      -5.48933633E-04
   28.6800003      -5.50189230E-04
   28.7999992      -5.51181263E-04
   28.9200001      -5.51907870E-04
   29.0400009      -5.52367303E-04
   29.1599998      -5.52558166E-04
   29.2800007      -5.52479294E-04
   29.3999996      -5.52129815E-04
   29.5200005      -5.51509263E-04
   29.6399994      -5.50617580E-04
   29.7600002      -5.49454882E-04
   29.8799992      -5.48021693E-04
   30.0000000      -5.46318770E-04
   30.1200008      -5.44347218E-04
   30.2399998      -5.42108377E-04
   30.3600006      -5.39604051E-04
   30.4799995      -5.36836335E-04
   30.6000004      -5.33807848E-04
   30.7199993      -5.30521385E-04
   30.8400002      -5.26980322E-04
   30.9599991      -5.23188210E-04
   31.0799999      -5.19148889E-04
   31.2000008      -5.14866377E-04
   31.3199997      -5.10345038E-04
   31.4400005      -5.05589298E-04
   31.5599995      -5.00603928E-04
   31.6800003      -4.95394226E-04
   31.7999992      -4.89965605E-04
   31.9200001      -4.84323915E-04
   32.0400009      -4.78475296E-04
   32.1599998      -4.72426123E-04
   32.2799988      -4.66182944E-04
   32.4000015      -4.59752511E-04
   32.5200005      -4.53141547E-04
   32.6399994      -4.46356920E-04
   32.7599983      -4.39405791E-04
   32.8800011      -4.32295346E-04
   33.0000000      -4.25033330E-04
   33.1199989      -4.17627540E-04
   33.2400017      -4.10086097E-04
   33.3600006      -4.02417354E-04
   33.4799995      -3.94629635E-04
   33.5999985      -3.86731292E-04
   33.7200012      -3.78730678E-04
   33.8400002      -3.70636175E-04
   33.9599991      -3.62456223E-04
   34.0800018      -3.54199379E-04
   34.2000008      -3.45874374E-04
   34.3199997      -3.37489764E-04
   34.4399986      -3.29054339E-04
   34.5600014      -3.20576626E-04
   34.6800003      -3.12065124E-04
   34.7999992      -3.03528272E-04
   34.9199982      -2.94974336E-04
   35.0400009      -2.86411814E-04
   35.1599998      -2.77849147E-04
   35.2799988      -2.69294716E-04
   35.4000015      -2.60757020E-04
   35.5200005      -2.52244237E-04
   35.6399994      -2.43764531E-04
   35.7599983      -2.35325715E-04
   35.8800011      -2.26935357E-04
   36.0000000      -2.18600864E-04
   36.1199989      -2.10329585E-04
   36.2400017      -2.02128707E-04
   36.3600006      -1.94005290E-04
   36.4799995      -1.85966230E-04
   36.5999985      -1.78018148E-04
   36.7200012      -1.70167419E-04
   36.8400002      -1.62420140E-04
   36.9599991      -1.54782159E-04
   37.0800018      -1.47259125E-04
   37.2000008      -1.39856522E-04
   37.3199997      -1.32579662E-04
   37.4399986      -1.25433653E-04
   37.5600014      -1.18423319E-04
   37.6800003      -1.11553214E-04
   37.7999992      -1.04827552E-04
   37.9199982      -9.82502097E-05
   38.0400009      -9.18247169E-05
   38.1599998      -8.55544058E-05
   38.2799988      -7.94422886E-05
   38.4000015      -7.34912246E-05
   38.5200005      -6.77037679E-05
   38.6399994      -6.20822539E-05
   38.7599983      -5.66286944E-05
   38.8800011      -5.13448176E-05
   39.0000000      -4.62320568E-05
   39.1199989      -4.12915870E-05
   39.2400017      -3.65243322E-05
   39.3600006      -3.19309947E-05
   39.4799995      -2.75120456E-05
   39.5999985      -2.32677012E-05
   39.7200012      -1.91979198E-05
   39.8400002      -1.53023557E-05
   39.9599991      -1.15803614E-05
   40.0800018      -8.03099283E-06
   40.2000008      -4.65305629E-06
   40.3199997      -1.44514593E-06
   40.4399986       1.59431579E-06
   40.5600014       4.46706326E-06
   40.6800003       7.17498324E-06
   40.7999992       9.72013186E-06
   40.9199982       1.21047478E-05
   41.0400009       1.43312645E-05
   41.1599998       1.64022931E-05
   41.2799988       1.83206121E-05
   41.4000015       2.00891609E-05
   41.5200005       2.17110191E-05
   41.6399994       2.31894464E-05
   41.7599983       2.45278716E-05
   41.8800011       2.57299162E-05
   42.0000000       2.67993692E-05
   42.1199989       2.77401523E-05
   42.2400017       2.85562328E-05
   42.3600006       2.92515761E-05
   42.4799995       2.98300874E-05
   42.5999985       3.02956250E-05
   42.7200012       3.06520378E-05
   42.8400002       3.09032475E-05
   42.9599991       3.10533214E-05
   43.0800018       3.11064832E-05
   43.2000008       3.10671276E-05
   43.3199997       3.09397365E-05
   43.4399986       3.07288028E-05
   43.5600014       3.04387540E-05
   43.6800003       3.00739139E-05
   43.7999992       2.96384969E-05
   43.9199982       2.91366650E-05
   44.0400009       2.85725564E-05
   44.1599998       2.79503238E-05
   44.2799988       2.72741145E-05
   44.4000015       2.65480576E-05
   44.5200005       2.57761913E-05
   44.6399994       2.49624336E-05
   44.7599983       2.41105809E-05
   44.8800011       2.32243201E-05
   45.0000000       2.23072875E-05
   45.1199989       2.13631247E-05
   45.2400017       2.03954714E-05
   45.3600006       1.94079767E-05
   45.4799995       1.84042310E-05
   45.5999985       1.73877106E-05
   45.7200012       1.63617024E-05
   45.8400002       1.53292858E-05
   45.9599991       1.42933432E-05
   46.0800018       1.32565938E-05
   46.2000008       1.22216470E-05
   46.3199997       1.11910549E-05
   46.4399986       1.01673249E-05
   46.5600014       9.15292549E-06
   46.6800003       8.15025578E-06
   46.7999992       7.16161094E-06
   46.9199982       6.18916192E-06
   47.0400009       5.23493782E-06
   47.1599998       4.30083355E-06
   47.2799988       3.38861810E-06
   47.4000015       2.49994696E-06
   47.5200005       1.63636412E-06
   47.6399994       7.99291399E-07
   47.7599983      -9.98051863E-09
   47.8800011      -7.90306501E-07
   48.0000000      -1.54068744E-06
   48.1199989      -2.26025804E-06
   48.2400017      -2.94826123E-06
   48.3600006      -3.60401532E-06
   48.4799995      -4.22689482E-06
   48.5999985      -4.81631514E-06
   48.7200012      -5.37174174E-06
   48.8400002      -5.89270803E-06
   48.9599991      -6.37884204E-06
   49.0800018      -6.82988548E-06
   49.2000008      -7.24570236E-06
   49.3199997      -7.62627451E-06
   49.4399986      -7.97168468E-06
   49.5600014      -8.28209704E-06
   49.6800003      -8.55774761E-06
   49.7999992      -8.79893287E-06
   49.9199982      -9.00602390E-06
   50.0400009      -9.17946181E-06
   50.1599998      -9.31976501E-06
   50.2799988      -9.42751649E-06
   50.4000015      -9.50335198E-06
   50.5200005      -9.54794177E-06
   50.6399994      -9.56198255E-06
   50.7599983      -9.54619463E-06
   50.8800011      -9.50132562E-06
   51.0000000      -9.42815950E-06
   51.1199989      -9.32751391E-06
   51.2400017      -9.20023922E-06
   51.3600006      -9.04721674E-06
   51.4799995      -8.86934686E-06
   51.5999985      -8.66755454E-06
   51.7200012      -8.44279657E-06
   51.8400002      -8.19606430E-06
   51.9599991      -7.92838364E-06
   52.0800018      -7.64080505E-06
   52.2000008      -7.33437400E-06
   52.3199997      -7.01011095E-06
   52.4399986      -6.66899905E-06
   52.5600014      -6.31199782E-06
   52.6800003      -5.94007042E-06
   52.7999992      -5.55421911E-06
   52.9199982      -5.15550710E-06
   53.0400009      -4.74505532E-06
   53.1599998      -4.32400839E-06
   53.2799988      -3.89348679E-06
   53.4000015      -3.45453736E-06
   53.5200005      -3.00811212E-06
   53.6399994      -2.55507962E-06
   53.7599983      -2.09626342E-06
   53.8800011      -1.63248933E-06
   54.0000000      -1.16461683E-06
   54.1199989      -6.93545928E-07
   54.2400017      -2.20197734E-07
   54.3600006       2.54523428E-07
   54.4799995       7.29757176E-07
   54.5999985       1.20469826E-06
   54.7200012       1.67858627E-06
   54.8400002       2.15068530E-06
   54.9599991       2.62026538E-06
   55.0800018       3.08660174E-06
   55.2000008       3.54898930E-06
   55.3199997       4.00676618E-06
   55.4399986       4.45932665E-06
   55.5600014       4.90612365E-06
   55.6800003       5.34665242E-06
   55.7999992       5.78042773E-06
   55.9199982       6.20696756E-06
   56.0400009       6.62579396E-06
   56.1599998       7.03644355E-06
   56.2799988       7.43848932E-06
   56.4000015       7.83154883E-06
   56.5200005       8.21528283E-06
   56.6399994       8.58937346E-06
   56.7599983       8.95350877E-06
   56.8800011       9.30736223E-06
   57.0000000       9.65060190E-06
   57.1199989       9.98291489E-06
   57.2400017       1.03040384E-05
   57.3600006       1.06137768E-05
   57.4799995       1.09120210E-05
   57.5999985       1.11987247E-05
   57.7200012       1.14738841E-05
   57.8400002       1.17375021E-05
   57.9599991       1.19895694E-05
   58.0800018       1.22300544E-05
   58.2000008       1.24588996E-05
   58.3199997       1.26760360E-05
   58.4399986       1.28813863E-05
   58.5600014       1.30748822E-05
   58.6800003       1.32564692E-05
   58.7999992       1.34261272E-05
   58.9199982       1.35838800E-05
   59.0400009       1.37298193E-05
   59.1599998       1.38641017E-05
   59.2799988       1.39869426E-05
   59.4000015       1.40985876E-05
   59.5200005       1.41992859E-05
   59.6399994       1.42892559E-05
   59.7599983       1.43686748E-05
   59.8800011       1.44376754E-05
   60.0000000       1.44963678E-05
   60.1199989       1.45448621E-05
   60.2400017       1.45832928E-05
   60.3600006       1.46118336E-05
   60.4799995       1.46306893E-05
   60.5999985       1.46400853E-05
   60.7200012       1.46402499E-05
   60.8400002       1.46313978E-05
   60.9599991       1.46137336E-05
   61.0800018       1.45874501E-05
   61.2000008       1.45527529E-05
   61.3199997       1.45098666E-05
   61.4399986       1.44590558E-05
   61.5600014       1.44006153E-05
   61.6800003       1.43348743E-05
   61.7999992       1.42621811E-05
   61.9199982       1.41828787E-05
   62.0400009       1.40972834E-05
   62.1599998       1.40056654E-05
   62.2799988       1.39082349E-05
   62.4000015       1.38051482E-05
   62.5200005       1.36965209E-05
   62.6399994       1.35824594E-05
   62.7599983       1.34630900E-05
   62.8800011       1.33385875E-05
   63.0000000       1.32091773E-05
   63.1199989       1.30751350E-05
   63.2400017       1.29367572E-05
   63.3600006       1.27943449E-05
   63.4799995       1.26481818E-05
   63.5999985       1.24985318E-05
   63.7200012       1.23456366E-05
   63.8400002       1.21897265E-05
   63.9599991       1.20310224E-05
   64.0800018       1.18697253E-05
   64.1999969       1.17060044E-05
   64.3199997       1.15399898E-05
   64.4400024       1.13717724E-05
   64.5599976       1.12014268E-05
   64.6800003       1.10290448E-05
   64.8000031       1.08547611E-05
   64.9199982       1.06787747E-05
   65.0400009       1.05013323E-05
   65.1600037       1.03226985E-05
   65.2799988       1.01431042E-05
   65.4000015       9.96271592E-06
   65.5199966       9.78162643E-06
   65.6399994       9.59988211E-06
   65.7600021       9.41751659E-06
   65.8799973       9.23460630E-06
   66.0000000       9.05127854E-06
   66.1200027       8.86771159E-06
   66.2399979       8.68409279E-06
   66.3600006       8.50057404E-06
   66.4800034       8.31724174E-06
   66.5999985       8.13411953E-06
   66.7200012       7.95119377E-06
   66.8399963       7.76846537E-06
   66.9599991       7.58598253E-06
   67.0800018       7.40385303E-06
   67.1999969       7.22222558E-06
   67.3199997       7.04125478E-06
   67.4400024       6.86105659E-06
   67.5599976       6.68169287E-06
   67.6800003       6.50317952E-06
   67.8000031       6.32550973E-06
   67.9199982       6.14868986E-06
   68.0400009       5.97275221E-06
   68.1600037       5.79775724E-06
   68.2799988       5.62377227E-06
   68.4000015       5.45085140E-06
   68.5199966       5.27902284E-06
   68.6399994       5.10829523E-06
   68.7600021       4.93867628E-06
   68.8799973       4.77018875E-06
   69.0000000       4.60287765E-06
   69.1200027       4.43679619E-06
   69.2399979       4.27198711E-06
   69.3600006       4.10846496E-06
   69.4800034       3.94621429E-06
   69.5999985       3.78520758E-06
   69.7200012       3.62543233E-06
   69.8399963       3.46691422E-06
   69.9599991       3.30971625E-06
   70.0800018       3.15391753E-06
   70.1999969       2.99957469E-06
   70.3199997       2.84668931E-06
   70.4400024       2.69519683E-06
   70.5599976       2.54499059E-06
   70.6800003       2.39596875E-06
   70.8000031       2.24808628E-06
   70.9199982       2.10138205E-06
   71.0400009       1.95597636E-06
   71.1600037       1.81202631E-06
   71.2799988       1.66966765E-06
   71.4000015       1.52896428E-06
   71.5199966       1.38988912E-06
   71.6399994       1.25234567E-06
   71.7600021       1.11621534E-06
   71.8799973       9.81411063E-07
   72.0000000       8.47908836E-07
   72.1200027       7.15746012E-07
   72.2399979       5.84988356E-07
   72.3600006       4.55686717E-07
   72.4800034       3.27844361E-07
   72.5999985       2.01415560E-07
   72.7200012       7.63345014E-08