  -30.0000000       0.00000000    
  -29.8799992       0.00000000    
  -29.7600002       0.00000000    
  -29.6399994       0.00000000    
  -29.5200005       0.00000000    
  -29.3999996      -1.16167643E-42
  -29.2800007       1.36192198E-41
  -29.1599998       5.67343709E-41
  -29.0400009      -7.44089485E-41
  -28.9200001      -7.93345126E-40
  -28.7999992      -1.44732271E-39
  -28.6800003       1.31655914E-39
  -28.5599995       9.61839355E-39
  -28.4400005       1.00974569E-38
  -28.3199997      -3.52072203E-38
  -28.2000008      -1.48789759E-37
  -28.0799999      -2.20762421E-37
  -27.9599991       9.72768726E-38
  -27.8400002       1.23890793E-36
  -27.7199993       3.07730488E-36
  -27.6000004       3.99360143E-36
  -27.4799995       6.34451982E-37
  -27.3600006      -1.02655727E-35
  -27.2399998      -2.75843123E-35
  -27.1200008      -4.12228707E-35
  -27.0000000      -3.21558345E-35
  -26.8799992       1.81365835E-35
  -26.7600002       1.09646210E-34
  -26.6399994       2.07432026E-34
  -26.5200005       2.43575034E-34
  -26.3999996       1.49070695E-34
  -26.2800007      -9.28678132E-35
  -26.1599998      -4.06248506E-34
  -26.0400009      -6.38634647E-34
  -25.9200001      -6.52983255E-34
  -25.7999992      -4.53662576E-34
  -25.6800003      -2.45280695E-34
  -25.5599995      -3.18900092E-34
  -25.4400005      -7.52343843E-34
  -25.3199997      -1.07868495E-33
  -25.2000008      -2.20111294E-34
  -25.0799999       3.03505295E-33
  -24.9599991       8.99990434E-33
  -24.8400002       1.59324197E-32
  -24.7199993       1.95640640E-32
  -24.6000004       1.41171934E-32
  -24.4799995      -4.96206949E-33
  -24.3600006      -3.73412649E-32
  -24.2399998      -7.49505307E-32
  -24.1200008      -1.01947228E-31
  -24.0000000      -9.86809287E-32
  -23.8799992      -4.91304476E-32
  -23.7600002       5.05335559E-32
  -23.6399994       1.85549091E-31
  -23.5200005       3.21129423E-31
  -23.3999996       4.07198108E-31
  -23.2800007       3.88791065E-31
  -23.1599998       2.20768066E-31
  -23.0400009      -1.14530295E-31
  -22.9200001      -5.88372774E-31
  -22.7999992      -1.10931599E-30
  -22.6800003      -1.51746804E-30
  -22.5599995      -1.60115647E-30
  -22.4400005      -1.14691724E-30
  -22.3199997      -2.42019520E-32
  -22.2000008       1.71182371E-30
  -22.0799999       3.73641619E-30
  -21.9599991       5.43930765E-30
  -21.8400002       6.01887112E-30
  -21.7199993       4.69924800E-30
  -21.6000004       1.03778980E-30
  -21.4799995      -4.75677124E-30
  -21.3600006      -1.16065137E-29
  -21.2399998      -1.75618856E-29
  -21.1200008      -2.01012950E-29
  -21.0000000      -1.67592182E-29
  -20.8799992      -6.01929505E-30
  -20.7600002       1.17062145E-29
  -20.6399994       3.33127471E-29
  -20.5200005       5.28481797E-29
  -20.3999996       6.23489005E-29
  -20.2800007       5.38680740E-29
  -20.1599998       2.25094537E-29
  -20.0400009      -3.02526099E-29
  -19.9200001      -9.41908961E-29
  -19.7999992      -1.50322455E-28
  -19.6800003      -1.74412938E-28
  -19.5599995      -1.44164716E-28
  -19.4400005      -4.88182616E-29
  -19.3199997       1.01640965E-28
  -19.2000008       2.71515437E-28
  -19.0799999       4.02461171E-28
  -18.9599991       4.26853242E-28
  -18.8400002       2.90717897E-28
  -18.7199993      -1.84831918E-29
  -18.6000004      -4.47895809E-28
  -18.4799995      -8.70366453E-28
  -18.3600006      -1.10134121E-27
  -18.2399998      -9.47515836E-28
  -18.1200008      -2.83577031E-28
  -18.0000000       8.59821794E-28
  -17.8799992       2.22718044E-27
  -17.7600002       3.32703165E-27
  -17.6399994       3.51412227E-27
  -17.5200005       2.18087126E-27
  -17.3999996      -9.62698423E-28
  -17.2800007      -5.58922126E-27
  -17.1599998      -1.05481365E-26
  -17.0400009      -1.38895433E-26
  -16.9200001      -1.32320262E-26
  -16.7999992      -6.50951148E-27
  -16.6800003       7.00247020E-27
  -16.5599995       2.56457463E-26
  -16.4400005       4.47341449E-26
  -16.3199997       5.67732223E-26
  -16.2000008       5.29191869E-26
  -16.0799999       2.57589833E-26
  -15.9600000      -2.69821583E-26
  -15.8400002      -9.87676595E-26
  -15.7200003      -1.72060424E-25
  -15.6000004      -2.19243625E-25
  -15.4799995      -2.07918639E-25
  -15.3599997      -1.10821744E-25
  -15.2399998       8.10359584E-26
  -15.1199999       3.45332588E-25
  -15.0000000       6.20481602E-25
  -14.8800001       8.08355581E-25
  -14.7600002       7.92132657E-25
  -14.6400003       4.70340467E-25
  -14.5200005      -1.97276055E-25
  -14.3999996      -1.14301202E-24
  -14.2799997      -2.16041254E-24
  -14.1599998      -2.90894904E-24
  -14.0400000      -2.97059537E-24
  -13.9200001      -1.96407669E-24
  -13.8000002       2.95632256E-25
  -13.6800003       3.62791569E-24
  -13.5600004       7.36425952E-24
  -13.4399996       1.03419830E-23
  -13.3199997       1.10754470E-23
  -13.1999998       8.13267631E-24
  -13.0799999       6.84620875E-25
  -12.9600000      -1.08849252E-23
  -12.8400002      -2.44989826E-23
  -12.7200003      -3.62753080E-23
  -12.6000004      -4.10079213E-23
  -12.4799995      -3.33669861E-23
  -12.3599997      -9.74718033E-24
  -12.2399998       2.95702144E-23
  -12.1199999       7.85530776E-23
  -12.0000000       1.24659928E-22
  -11.8800001       1.50004072E-22
  -11.7600002       1.34985069E-22
  -11.6400003       6.43367376E-23
  -11.5200005      -6.53268653E-23
  -11.3999996      -2.38359712E-22
  -11.2799997      -4.16011036E-22
  -11.1599998      -5.38367553E-22
  -11.0400000      -5.34608940E-22
  -10.9200001      -3.42133619E-22
  -10.8000002       6.76680341E-23
  -10.6800003       6.62583333E-22
  -10.5600004       1.33037330E-21
  -10.4399996       1.87750895E-21
  -10.3199997       2.05506884E-21
  -10.1999998       1.61627174E-21
  -10.0799999       4.01570288E-22
  -9.96000004      -1.56405324E-21
  -9.84000015      -3.98846741E-21
  -9.72000027      -6.27935623E-21
  -9.60000038      -7.59586062E-21
  -9.47999954      -7.00858824E-21
  -9.35999966      -3.76700151E-21
  -9.23999977       2.36283536E-21
  -9.11999989       1.07680845E-20
  -9.00000000       1.97790404E-20
  -8.88000011       2.67057636E-20
  -8.76000023       2.82274770E-20
  -8.64000034       2.11760272E-20
  -8.52000046       3.64620527E-21
  -8.39999962      -2.37718751E-20
  -8.27999973      -5.69791797E-20
  -8.15999985      -8.80035903E-20
  -8.03999996      -1.05709792E-19
  -7.92000008      -9.78632536E-20
  -7.80000019      -5.45278171E-20
  -7.67999983       2.76567676E-20
  -7.55999994       1.41261032E-19
  -7.44000006       2.65277831E-19
  -7.32000017       3.65305758E-19
  -7.19999981       3.98034089E-19
  -7.07999992       3.20630327E-19
  -6.96000004       1.04382936E-19
  -6.84000015      -2.49664719E-19
  -6.71999979      -6.97007717E-19
  -6.59999990      -1.14301864E-18
  -6.48000002      -1.44862869E-18
  -6.36000013      -1.45228721E-18
  -6.23999977      -1.00897465E-18
  -6.11999989      -4.22157345E-20
  -6.00000000       1.40072087E-18
  -5.88000011       3.10564299E-18
  -5.76000023       4.67873124E-18
  -5.63999987       5.58194754E-18
  -5.51999998       5.22777485E-18
  -5.40000010       3.13191570E-18
  -5.28000021      -8.95166174E-19
  -5.15999985      -6.55691927E-18
  -5.03999996      -1.29359178E-17
  -4.92000008      -1.84803514E-17
  -4.80000019      -2.11698184E-17
  -4.67999983      -1.88920591E-17
  -4.55999994      -1.00152448E-17
  -4.44000006       5.92242583E-18
  -4.32000017       2.75519155E-17
  -4.19999981       5.12428199E-17
  -4.07999992       7.11268720E-17
  -3.96000004       7.97677926E-17
  -3.83999991       6.95710048E-17
  -3.72000003       3.48593531E-17
  -3.59999990      -2.56768873E-17
  -3.48000002      -1.06676686E-16
  -3.35999990      -1.94654855E-16
  -3.24000001      -2.68166952E-16
  -3.11999989      -3.00242872E-16
  -3.00000000      -2.63394080E-16
  -2.88000011      -1.36927799E-16
  -2.75999999       8.44362345E-17
  -2.64000010       3.82422935E-16
  -2.51999998       7.09923724E-16
  -2.40000010       9.91206319E-16
  -2.27999997       1.12986466E-15
  -2.16000009       1.02564858E-15
  -2.03999996       5.99446381E-16
  -1.91999996      -1.76741802E-16
  -1.79999995      -1.25059968E-15
  -1.67999995      -2.46897632E-15
  -1.55999994      -3.57495973E-15
  -1.44000006      -4.23054841E-15
  -1.32000005      -4.06962739E-15
  -1.20000005      -2.78014530E-15
  -1.08000004      -2.06557944E-16
 -0.959999979       3.54509568E-15
 -0.839999974       8.02481217E-15
 -0.720000029       1.24087066E-14
 -0.600000024       1.55501104E-14
 -0.479999989       1.61315358E-14
 -0.360000014       1.29203899E-14
 -0.239999995       5.10720252E-15
 -0.119999997      -7.32324527E-15
  -1.11022302E-15  -2.32646239E-14
  0.119999997      -4.03014482E-14
  0.239999995      -5.47606834E-14
  0.360000014      -6.20834018E-14
  0.479999989      -5.75528733E-14
  0.600000024      -3.73458453E-14
  0.720000029       2.14062775E-16
  0.839999974       5.34141958E-14
  0.959999979       1.16212460E-13
   1.08000004       1.77928419E-13
   1.20000005       2.23874711E-13
   1.32000005       2.37138488E-13
   1.44000006       2.01543182E-13
   1.55999994       1.05567458E-13
   1.67999995      -5.32932056E-14
   1.79999995      -2.64520963E-13
   1.91999996      -5.01933727E-13
   2.03999996      -7.23478298E-13
   2.16000009      -8.74386121E-13
   2.27999997      -8.94226750E-13
   2.40000010      -7.27752982E-13
   2.51999998      -3.38593899E-13
   2.64000010       2.76072920E-13
   2.75999999       1.07258766E-12
   2.88000011       1.95290485E-12
   3.00000000       2.76509696E-12
   3.11999989       3.31508020E-12
   3.24000001       3.39104179E-12
   3.35999990       2.80000480E-12
   3.48000002       1.41334448E-12
   3.59999990      -7.84740382E-13
   3.72000003      -3.65435937E-12
   3.83999991      -6.87291066E-12
   3.96000004      -9.93441353E-12
   4.07999992      -1.21840116E-11
   4.19999981      -1.28925707E-11
   4.32000017      -1.13702771E-11
   4.44000006      -7.11047193E-12
   4.55999994       5.34100996E-14
   4.67999983       9.80267343E-12
   4.80000019       2.12303213E-11
   4.92000008       3.28121211E-11
   5.03999996       4.24801132E-11
   5.15999985       4.78170697E-11
   5.28000021       4.63745917E-11
   5.40000010       3.60964487E-11
   5.51999998       1.58052633E-11
   5.63999987      -1.43126839E-11
   5.76000023      -5.23082515E-11
   5.88000011      -9.42489004E-11
   6.00000000      -1.34266459E-10
   6.11999989      -1.64943365E-10
   6.23999977      -1.78071030E-10
   6.36000013      -1.65762709E-10
   6.48000002      -1.21840898E-10
   6.59999990      -4.33529324E-11
   6.71999979       6.79908352E-11
   6.84000015       2.04705156E-10
   6.96000004       3.53008067E-10
   7.07999992       4.93130869E-10
   7.19999981       6.00637096E-10
   7.32000017       6.48820220E-10
   7.44000006       6.12105477E-10
   7.55999994       4.70213035E-10
   7.67999983       2.12665607E-10
   7.80000019      -1.56928318E-10
   7.92000008      -6.17494611E-10
   8.03999996      -1.12873011E-09
   8.15999985      -1.63161362E-09
   8.27999973      -2.05168904E-09
   8.39999962      -2.30534813E-09
   8.52000046      -2.30899100E-09
   8.64000034      -1.99051042E-09
   8.76000023      -1.30212297E-09
   8.88000011      -2.33150416E-10
   9.00000000       1.17894139E-09
   9.11999989       2.84110047E-09
   9.23999977       4.60264538E-09
   9.35999966       6.26013463E-09
   9.47999954       7.57012231E-09
   9.60000038       8.27000690E-09
   9.72000027       8.10622680E-09
   9.84000015       6.86800172E-09
   9.96000004       4.42377468E-09
   10.0799999       7.56589180E-10
   10.1999998      -4.00601996E-09
   10.3199997      -9.57232604E-09
   10.4399996      -1.54813815E-08
   10.5600004      -2.11163993E-08
   10.6800003      -2.57389630E-08
   10.8000002      -2.85446795E-08
   10.9200001      -2.87386079E-08
   11.0400000      -2.56264219E-08
   11.1599998      -1.87146796E-08
   11.2799997      -7.81143683E-09
   11.3999996       6.88335122E-09
   11.5200005       2.47091307E-08
   11.6400003       4.45092141E-08
   11.7600002       6.46386837E-08
   11.8800001       8.30236644E-08
   12.0000000       9.72762066E-08
   12.1199999       1.04864618E-07
   12.2399998       1.03333569E-07
   12.3599997       9.05626649E-08
   12.4799995       6.50466276E-08
   12.6000004       2.61750266E-08
   12.7200003      -2.55139572E-08
   12.8400002      -8.81337954E-08
   12.9600000      -1.58331858E-07
   13.0799999      -2.31279259E-07
   13.1999998      -3.00789367E-07
   13.3199997      -3.59578394E-07
   13.4399996      -3.99672444E-07
   13.5600004      -4.12954506E-07
   13.6800003      -3.91832060E-07
   13.8000002      -3.29994947E-07
   13.9200001      -2.23220923E-07
   14.0400000      -7.01771086E-08
   14.1599998       1.26840661E-07
   14.2799997       3.61293132E-07
   14.3999996       6.21967843E-07
   14.5200005       8.92789899E-07
   14.6400003       1.15291891E-06
   14.7600002       1.37716393E-06
   14.8800001       1.53672977E-06
   15.0000000       1.60028810E-06
   15.1199999       1.53534700E-06
   15.2399998       1.30986621E-06
   15.3599997       8.94053414E-07
   15.4799995       2.62249017E-07
   15.6000004      -6.05194316E-07
   15.7200003      -1.72014791E-06
   15.8400002      -3.08516474E-06
   15.9600000      -4.69226097E-06
   16.0799999      -6.52211656E-06
   16.2000008      -8.54375503E-06
   16.3199997      -1.07147735E-05
   16.4400005      -1.29821210E-05
   16.5599995      -1.52834418E-05
   16.6800003      -1.75489295E-05
   16.7999992      -1.97036352E-05
   16.9200001      -2.16701537E-05
   17.0400009      -2.33715400E-05
   17.1599998      -2.47343633E-05
   17.2800007      -2.56917592E-05
   17.3999996      -2.61862951E-05
   17.5200005      -2.61725927E-05
   17.6399994      -2.56195126E-05
   17.7600002      -2.45118372E-05
   17.8799992      -2.28513563E-05
   18.0000000      -2.06573113E-05
   18.1200008      -1.79661492E-05
   18.2399998      -1.48306217E-05
   18.3600006      -1.13182550E-05
   18.4799995      -7.50921981E-06
   18.6000004      -3.49374432E-06
   18.7199993       6.30858949E-07
   18.8400002       4.76342984E-06
   18.9599991       8.80231710E-06
   19.0799999       1.26487403E-05
   19.2000008       1.62100041E-05
   19.3199997       1.94024669E-05
   19.4400005       2.21541450E-05
   19.5599995       2.44068633E-05
   19.6800003       2.61178775E-05
   19.7999992       2.72609304E-05
   19.9200001       2.78267198E-05
   20.0400009       2.78227672E-05
   20.1599998       2.72727175E-05
   20.2800007       2.62151243E-05
   20.3999996       2.47017597E-05
   20.5200005       2.27955534E-05
   20.6399994       2.05682245E-05
   20.7600002       1.80977004E-05
   20.8799992       1.54654481E-05
   21.0000000       1.27537760E-05
   21.1200008       1.00432108E-05
   21.2399998       7.41005078E-06
   21.3600006       4.92414301E-06
   21.4799995       2.64695245E-06
   21.6000004       6.29982026E-07
   21.7199993      -1.08643269E-06
   21.8400002      -2.47392768E-06
   21.9599991      -3.51650624E-06
   22.0799999      -4.21052709E-06
   22.2000008      -4.56430371E-06
   22.3199997      -4.59732837E-06
   22.4400005      -4.33916057E-06
   22.5599995      -3.82801727E-06
   22.6800003      -3.10910900E-06
   22.7999992      -2.23277516E-06
   22.9200001      -1.25248152E-06
   23.0400009      -2.22734513E-07
   23.1599998       8.03010153E-07
   23.2800007       1.77438028E-06
   23.3999996       2.64598634E-06
   23.5200005       3.37911797E-06
   23.6399994       3.94316703E-06
   23.7600002       4.31671788E-06
   23.8799992       4.48825267E-06
   24.0000000       4.45642945E-06
   24.1200008       4.22991752E-06
   24.2399998       3.82677899E-06
   24.3600006       3.27342013E-06
   24.4799995       2.60315028E-06
   24.6000004       1.85440877E-06
   24.7199993       1.06874097E-06
   24.8400002       2.88620839E-07
   24.9599991      -4.44774088E-07
   25.0799999      -1.09371877E-06
   25.2000008      -1.62591448E-06
   25.3199997      -2.01617104E-06
   25.4400005      -2.24770429E-06
   25.5599995      -2.31296713E-06
   25.6800003      -2.21396908E-06
   25.7999992      -1.96205224E-06
   25.9200001      -1.57713600E-06
   26.0400009      -1.08646623E-06
   26.1599998      -5.22937967E-07
   26.2800007       7.69107302E-08
   26.3999996       6.75116041E-07
   26.5200005       1.23458312E-06
   26.6399994       1.72131456E-06
   26.7600002       2.10643384E-06
   26.8799992       2.36787309E-06
   27.0000000       2.49161758E-06
   27.1200008       2.47242383E-06
   27.2399998       2.31396916E-06
   27.3600006       2.02842466E-06
   27.4799995       1.63548327E-06
   27.6000004       1.16092076E-06
   27.7199993       6.34793309E-07
   27.8400002       8.94020289E-08
   27.9599991      -4.42826774E-07
   28.0799999      -9.31396357E-07
   28.2000008      -1.34958714E-06
   28.3199997      -1.67597636E-06
   28.4400005      -1.89553714E-06
   28.5599995      -2.00025852E-06
   28.6800003      -1.98927319E-06
   28.7999992      -1.86851082E-06
   28.9200001      -1.64993662E-06
   29.0400009      -1.35046002E-06
   29.1599998      -9.90618219E-07
   29.2800007      -5.93147718E-07
   29.3999996      -1.81555066E-07
   29.5200005       2.21213853E-07
   29.6399994       5.93925790E-07
   29.7600002       9.17978582E-07
   29.8799992       1.17805791E-06
   30.0000000       1.36253038E-06
   30.1200008       1.46359378E-06
   30.2399998       1.47722301E-06
   30.3600006       1.40296072E-06
   30.4799995       1.24360406E-06
   30.6000004       1.00483680E-06
   30.7199993       6.94846619E-07
   30.8400002       3.23954083E-07
   30.9599991      -9.57333910E-08
   31.0799999      -5.50645154E-07
   31.2000008      -1.02605918E-06
   31.3199997      -1.50642325E-06
   31.4400005      -1.97570625E-06
   31.5599995      -2.41779867E-06
   31.6800003      -2.81697498E-06
   31.7999992      -3.15841544E-06
   31.9200001      -3.42877865E-06
   32.0400009      -3.61679736E-06
   32.1599998      -3.71385795E-06
   32.2799988      -3.71452961E-06
   32.4000015      -3.61698380E-06
   32.5200005      -3.42326916E-06
   32.6399994      -3.13940063E-06
   32.7599983      -2.77523782E-06
   32.8800011      -2.34414529E-06
   33.0000000      -1.86243972E-06
   33.1199989      -1.34864888E-06
   33.2400017      -8.22624827E-07
   33.3600006      -3.04561780E-07
   33.4799995       1.86020003E-07
   33.5999985       6.31259468E-07
   33.7200012       1.01584658E-06
   33.8400002       1.32776358E-06
   33.9599991       1.55882992E-06
   34.0800018       1.70501721E-06
   34.2000008       1.76651690E-06
   34.3199997       1.74755837E-06
   34.4399986       1.65599329E-06
   34.5600014       1.50267397E-06
   34.6800003       1.30066758E-06
   34.7999992       1.06436050E-06
   34.9199982       8.08509753E-07
   35.0400009       5.47308616E-07
   35.1599998       2.93525602E-07
   35.2799988       5.77797152E-08
   35.4000015      -1.52000865E-07
   35.5200005      -3.30897706E-07
   35.6399994      -4.77077776E-07
   35.7599983      -5.91622438E-07
   35.8800011      -6.78127378E-07
   36.0000000      -7.42107829E-07
   36.1199989      -7.90261652E-07
   36.2400017      -8.29653800E-07
   36.3600006      -8.66895732E-07
   36.4799995      -9.07390927E-07
   36.5999985      -9.54713983E-07
   36.7200012      -1.01018134E-06
   36.8400002      -1.07265055E-06
   36.9599991      -1.13856800E-06
   37.0800018      -1.20225786E-06
   37.2000008      -1.25642862E-06
   37.3199997      -1.29284695E-06
   37.4399986      -1.30311764E-06
   37.5600014      -1.27949806E-06
   37.6800003      -1.21567018E-06
   37.7999992      -1.10740166E-06
   37.9199982      -9.53034828E-07
   38.0400009      -7.53761526E-07
   38.1599998      -5.13657938E-07
   38.2799988      -2.39479789E-07
   38.4000015       5.97629892E-08
   38.5200005       3.73412092E-07
   38.6399994       6.89890953E-07
   38.7599983       9.97490702E-07
   38.8800011       1.28514102E-06
   39.0000000       1.54309498E-06
   39.1199989       1.76346737E-06
   39.2400017       1.94057975E-06
   39.3600006       2.07109019E-06
   39.4799995       2.15390151E-06
   39.5999985       2.18987225E-06
   39.7200012       2.18137416E-06
   39.8400002       2.13175554E-06
   39.9599991       2.04477874E-06
   40.0800018       1.92410812E-06
   40.2000008       1.77291031E-06
   40.3199997       1.59362128E-06
   40.4399986       1.38790426E-06
   40.5600014       1.15680916E-06
   40.6800003       9.01106205E-07
   40.7999992       6.21747574E-07
   40.9199982       3.20394122E-07
   41.0400009      -7.46207124E-11
   41.1599998      -3.35141777E-07
   41.2799988      -6.78399203E-07
   41.4000015      -1.02150875E-06
   41.5200005      -1.35440837E-06
   41.6399994      -1.66575978E-06
   41.7599983      -1.94361087E-06
   41.8800011      -2.17620845E-06
   42.0000000      -2.35289235E-06
   42.1199989      -2.46497120E-06
   42.2400017      -2.50649737E-06
   42.3600006      -2.47485127E-06
   42.4799995      -2.37107429E-06
   42.5999985      -2.19990966E-06
   42.7200012      -1.96953670E-06
   42.8400002      -1.69102327E-06
   42.9599991      -1.37753852E-06
   43.0800018      -1.04339836E-06
   43.2000008      -7.03030764E-07
   43.3199997      -3.69951550E-07
   43.4399986      -5.58434614E-08
   43.5600014       2.30181726E-07
   43.6800003       4.82075166E-07
   43.7999992       6.97058283E-07
   43.9199982       8.75532123E-07
   44.0400009       1.02070396E-06
   44.1599998       1.13796978E-06
   44.2799988       1.23411451E-06
   44.4000015       1.31640320E-06
   44.5200005       1.39164945E-06
   44.6399994       1.46534353E-06
   44.7599983       1.54092072E-06
   44.8800011       1.61923276E-06
   45.0000000       1.69827160E-06
   45.1199989       1.77317213E-06
   45.2400017       1.83649809E-06
   45.3600006       1.87879164E-06
   45.4799995       1.88934882E-06
   45.5999985       1.85716317E-06
   45.7200012       1.77196830E-06
   45.8400002       1.62530239E-06
   45.9599991       1.41151111E-06
   46.0800018       1.12860982E-06
   46.2000008       7.78932019E-07
   46.3199997       3.69502487E-07
   46.4399986      -8.79129516E-08
   46.5600014      -5.77106277E-07
   46.6800003      -1.07808012E-06
   46.7999992      -1.56803378E-06
   46.9199982      -2.02263618E-06
   47.0400009      -2.41751150E-06
   47.1599998      -2.72984698E-06
   47.2799988      -2.94000279E-06
   47.4000015      -3.03300840E-06
   47.5200005      -2.99981684E-06
   47.6399994      -2.83820145E-06
   47.7599983      -2.55320606E-06
   47.8800011      -2.15708837E-06
   48.0000000      -1.66873087E-06
   48.1199989      -1.11255360E-06
   48.2400017      -5.16991577E-07
   48.3600006       8.73436932E-08
   48.4799995       6.69678116E-07
   48.5999985       1.20109917E-06
   48.7200012       1.65642325E-06
   48.8400002       2.01575403E-06
   48.9599991       2.26560678E-06
   49.0800018       2.39951260E-06
   49.2000008       2.41807356E-06
   49.3199997       2.32847788E-06
   49.4399986       2.14354827E-06
   49.5600014       1.88042407E-06
   49.6800003       1.55901512E-06
   49.7999992       1.20037782E-06
   49.9199982       8.25158224E-07
   50.0400009       4.52236577E-07
   50.1599998       9.76763133E-08
   50.2799988      -2.25957919E-07
   50.4000015      -5.09886661E-07
   50.5200005      -7.49024707E-07
   50.6399994      -9.41566157E-07
   50.7599983      -1.08832808E-06
   50.8800011      -1.19195204E-06
   51.0000000      -1.25607198E-06
   51.1199989      -1.28454769E-06
   51.2400017      -1.28084878E-06
   51.3600006      -1.24765256E-06
   51.4799995      -1.18668390E-06
   51.5999985      -1.09880057E-06
   51.7200012      -9.84295298E-07
   51.8400002      -8.43359885E-07
   51.9599991      -6.76642912E-07
   52.0800018      -4.85817964E-07
   52.2000008      -2.74083050E-07
   52.3199997      -4.65164725E-08
   52.4399986       1.89768045E-07
   52.5600014       4.25704883E-07
   52.6800003       6.50611014E-07
   52.7999992       8.52758490E-07
   52.9199982       1.02014644E-06
   53.0400009       1.14141301E-06
   53.1599998       1.20680875E-06
   53.2799988       1.20914638E-06
   53.4000015       1.14463251E-06
   53.5200005       1.01349542E-06
   53.6399994       8.20336538E-07
   53.7599983       5.74149226E-07
   53.8800011       2.87977826E-07
   54.0000000      -2.17783711E-08
   54.1199989      -3.36380737E-07
   54.2400017      -6.36015784E-07
   54.3600006      -9.01212445E-07
   54.4799995      -1.11429301E-06
   54.5999985      -1.26073132E-06
   54.7200012      -1.33029266E-06
   54.8400002      -1.31784748E-06
   54.9599991      -1.22377810E-06
   55.0800018      -1.05393815E-06
   55.2000008      -8.19165052E-07
   55.3199997      -5.34394587E-07
   55.4399986      -2.17466251E-07
   55.5600014       1.12262235E-07
   55.6800003       4.35351581E-07
   55.7999992       7.33630714E-07
   55.9199982       9.91333195E-07
   56.0400009       1.19592266E-06
   56.1599998       1.33855156E-06
   56.2799988       1.41414125E-06
   56.4000015       1.42111776E-06
   56.5200005       1.36087954E-06
   56.6399994       1.23710140E-06
   56.7599983       1.05499259E-06
   56.8800011       8.20629339E-07
   57.0000000       5.40458188E-07
   57.1199989       2.21039571E-07
   57.2400017      -1.30943846E-07
   57.3600006      -5.08433175E-07
   57.4799995      -9.03558544E-07
   57.5999985      -1.30712181E-06
   57.7200012      -1.70811870E-06
   57.8400002      -2.09342602E-06
   57.9599991      -2.44776629E-06
   58.0800018      -2.75403272E-06
   58.2000008      -2.99400858E-06
   58.3199997      -3.14946715E-06
   58.4399986      -3.20357367E-06
   58.5600014      -3.14247109E-06
   58.6800003      -2.95688642E-06
   58.7999992      -2.64357368E-06
   58.9199982      -2.20641641E-06
   59.0400009      -1.65703068E-06
   59.1599998      -1.01475507E-06
   59.2799988      -3.05973771E-07
   59.4000015       4.37216386E-07
   59.5200005       1.17891000E-06
   59.6399994       1.88172578E-06
   59.7599983       2.50937364E-06
   59.8800011       3.02923399E-06
   60.0000000       3.41472401E-06
   60.1199989       3.64724087E-06
   60.2400017       3.71750912E-06
   60.3600006       3.62621745E-06
   60.4799995       3.38389714E-06
   60.5999985       3.01005161E-06
   60.7200012       2.53162420E-06
   60.8400002       1.98093358E-06
   60.9599991       1.39325584E-06
   61.0800018       8.04247236E-07
   61.2000008       2.47413055E-07
   61.3199997      -2.48182715E-07
   61.4399986      -6.59800037E-07
   61.5600014      -9.72364887E-07
   61.6800003      -1.17918341E-06
   61.7999992      -1.28199247E-06
   61.9199982      -1.29035584E-06
   62.0400009      -1.22047186E-06
   62.1599998      -1.09349298E-06
   62.2799988      -9.33496040E-07
   62.4000015      -7.65267487E-07
   62.5200005      -6.12075723E-07
   62.6399994      -4.93608695E-07
   62.7599983      -4.24236276E-07
   62.8800011      -4.11736778E-07
   63.0000000      -4.56589135E-07
   63.1199989      -5.51890764E-07
   63.2400017      -6.83910628E-07
   63.3600006      -8.33239710E-07
   63.4799995      -9.76451361E-07
   63.5999985      -1.08814413E-06
   63.7200012      -1.14320676E-06
   63.8400002      -1.11912971E-06
   63.9599991      -9.98176802E-07
   64.0800018      -7.69246185E-07
   64.1999969      -4.29269164E-07
   64.3199997       1.59689133E-08
   64.4400024       5.51658673E-07
   64.5599976       1.15447210E-06
   64.6800003       1.79371943E-06
   64.8000031       2.43308546E-06
   64.9199982       3.03283468E-06
   65.0400009       3.55234170E-06
   65.1600037       3.95277812E-06
   65.2799988       4.19977823E-06
   65.4000015       4.26591077E-06
   65.5199966       4.13278940E-06
   65.6399994       3.79267385E-06
   65.7600021       3.24946177E-06
   65.8799973       2.51898064E-06
   66.0000000       1.62855747E-06
   66.1200027       6.15871954E-07
   66.2399979      -4.72853230E-07
   66.3600006      -1.58523085E-06
   66.4800034      -2.66552820E-06
   66.5999985      -3.65776827E-06
   66.7200012      -4.50894186E-06
   66.8399963      -5.17213766E-06
   66.9599991      -5.60940089E-06
   67.0800018      -5.79415246E-06
   67.1999969      -5.71299279E-06
   67.3199997      -5.36677089E-06
   67.4400024      -4.77082176E-06
   67.5599976      -3.95432835E-06
   67.6800003      -2.95882023E-06
   67.8000031      -1.83587724E-06
   67.9199982      -6.44158206E-07
   68.0400009       5.54059341E-07
   68.1600037       1.69661564E-06
   68.2799988       2.72522834E-06
   68.4000015       3.58901798E-06
   68.5199966       4.24754944E-06
   68.6399994       4.67316841E-06
   68.7600021       4.85245801E-06
   68.8799973       4.78671791E-06
   69.0000000       4.49141999E-06
   69.1200027       3.99470264E-06
   69.2399979       3.33502226E-06
   69.3600006       2.55816258E-06
   69.4800034       1.71385113E-06
   69.5999985       8.52259518E-07
   69.7200012       2.06677413E-08
   69.8399963      -7.39442328E-07
   69.9599991      -1.39465703E-06
   70.0800018      -1.92111384E-06
   70.1999969      -2.30513024E-06
   70.3199997      -2.54299243E-06
   70.4400024      -2.63998959E-06
   70.5599976      -2.60885372E-06
   70.6800003      -2.46779587E-06
   70.8000031      -2.23836400E-06
   70.9199982      -1.94333961E-06
   71.0400009      -1.60486445E-06
   71.1600037      -1.24295229E-06
   71.2799988      -8.74475973E-07
   71.4000015      -5.12662496E-07
   71.5199966      -1.67068151E-07
   71.6399994       1.56050831E-07
   71.7600021       4.53090820E-07
   71.8799973       7.22314724E-07
   72.0000000       9.63066327E-07
   72.1200027       1.17510206E-06
   72.2399979       1.35812343E-06
   72.3600006       1.51155143E-06
   72.4800034       1.63453410E-06
   72.5999985       1.72614534E-06
   72.7200012       1.78569701E-06