  -30.0000000       0.00000000    
  -29.8799992       0.00000000    
  -29.7600002       0.00000000    
  -29.6399994       0.00000000    
  -29.5200005       0.00000000    
  -29.3999996       0.00000000    
  -29.2800007       4.48415509E-44
  -29.1599998       2.78858394E-43
  -29.0400009      -8.32371288E-43
  -28.9200001      -1.04733047E-41
  -28.7999992      -4.79286114E-41
  -28.6800003      -1.40948205E-40
  -28.5599995      -2.70615957E-40
  -28.4400005      -2.12258882E-40
  -28.3199997       7.52767726E-40
  -28.2000008       4.10117881E-39
  -28.0799999       1.17001429E-38
  -27.9599991       2.35027586E-38
  -27.8400002       3.18233648E-38
  -27.7199993       1.27412250E-38
  -27.6000004      -7.86021491E-38
  -27.4799995      -2.92615087E-37
  -27.3600006      -6.28834547E-37
  -27.2399998      -9.33049448E-37
  -27.1200008      -7.92386615E-37
  -27.0000000       4.51376889E-37
  -26.8799992       3.39975617E-36
  -26.7600002       7.90284766E-36
  -26.6399994       1.21300068E-35
  -26.5200005       1.19903330E-35
  -26.3999996       1.85301180E-36
  -26.2800007      -2.25770536E-35
  -26.1599998      -5.93013138E-35
  -26.0400009      -9.48234329E-35
  -25.9200001      -1.02450336E-34
  -25.7999992      -4.85632647E-35
  -25.6800003       9.06465479E-35
  -25.5599995       3.04737061E-34
  -25.4400005       5.26876680E-34
  -25.3199997       6.29788777E-34
  -25.2000008       4.55223687E-34
  -25.0799999      -1.17525397E-34
  -24.9599991      -1.07765125E-33
  -24.8400002      -2.19928271E-33
  -24.7199993      -3.01899900E-33
  -24.6000004      -2.92075945E-33
  -24.4799995      -1.34470539E-33
  -24.3600006       1.91546437E-33
  -24.2399998       6.41968616E-33
  -24.1200008       1.09261517E-32
  -24.0000000       1.35037397E-32
  -23.8799992       1.19845940E-32
  -23.7600002       4.72119600E-33
  -23.6399994      -8.51895376E-33
  -23.5200005      -2.58009637E-32
  -23.3999996      -4.27421677E-32
  -23.2800007      -5.29864658E-32
  -23.1599998      -4.95618393E-32
  -23.0400009      -2.70060688E-32
  -22.9200001       1.61392597E-32
  -22.7999992       7.51235224E-32
  -22.6800003       1.37876001E-31
  -22.5599995       1.85756931E-31
  -22.4400005       1.96663485E-31
  -22.3199997       1.50464793E-31
  -22.2000008       3.60364809E-32
  -22.0799999      -1.41586672E-31
  -21.9599991      -3.56023432E-31
  -21.8400002      -5.58630133E-31
  -21.7199993      -6.83800533E-31
  -21.6000004      -6.61373700E-31
  -21.4799995      -4.35347201E-31
  -21.3600006       1.40052379E-32
  -21.2399998       6.49594259E-31
  -21.1200008       1.36503651E-30
  -21.0000000       1.98705433E-30
  -20.8799992       2.29818098E-30
  -20.7600002       2.08173975E-30
  -20.6399994       1.18550514E-30
  -20.5200005      -4.06677317E-31
  -20.3999996      -2.51344691E-30
  -20.2800007      -4.72824039E-30
  -20.1599998      -6.44938568E-30
  -20.0400009      -6.98436162E-30
  -19.9200001      -5.72709499E-30
  -19.7999992      -2.38108738E-30
  -19.6800003       2.82755198E-30
  -19.5599995       9.02419076E-30
  -19.4400005       1.47250058E-29
  -19.3199997       1.80912967E-29
  -19.2000008       1.73897406E-29
  -19.0799999       1.15720847E-29
  -18.9599991       8.16065606E-31
  -18.8400002      -1.31667750E-29
  -18.7199993      -2.72263871E-29
  -18.6000004      -3.73506879E-29
  -18.4799995      -3.96593994E-29
  -18.3600006      -3.15999363E-29
  -18.2399998      -1.30196927E-29
  -18.1200008       1.32367555E-29
  -18.0000000       4.14794604E-29
  -17.8799992       6.41795631E-29
  -17.7600002       7.37167682E-29
  -17.6399994       6.45363175E-29
  -17.5200005       3.52171397E-29
  -17.3999996      -1.01253209E-29
  -17.2800007      -6.16441365E-29
  -17.1599998      -1.05152561E-28
  -17.0400009      -1.25180331E-28
  -16.9200001      -1.09345575E-28
  -16.7999992      -5.31911698E-29
  -16.6800003       3.58298141E-29
  -16.5599995       1.36793472E-28
  -16.4400005       2.17600665E-28
  -16.3199997       2.41877975E-28
  -16.2000008       1.79996209E-28
  -16.0799999       2.21180505E-29
  -15.9600000      -2.10380835E-28
  -15.8400002      -4.59754482E-28
  -15.7200003      -6.37444341E-28
  -15.6000004      -6.43016008E-28
  -15.4799995      -3.95651203E-28
  -15.3599997       1.27401650E-28
  -15.2399998       8.56039460E-28
  -15.1199999       1.61045395E-27
  -15.0000000       2.11679268E-27
  -14.8800001       2.06505181E-27
  -14.7600002       1.20803994E-27
  -14.6400003      -5.15681513E-28
  -14.5200005      -2.86950697E-27
  -14.3999996      -5.26496361E-27
  -14.2799997      -6.81564421E-27
  -14.1599998      -6.53132456E-27
  -14.0400000      -3.64675836E-27
  -13.9200001       1.97516211E-27
  -13.8000002       9.48490299E-27
  -13.6800003       1.68931281E-26
  -13.5600004       2.12834703E-26
  -13.4399996       1.94894080E-26
  -13.3199997       9.20215567E-27
  -13.1999998      -9.70667922E-27
  -13.0799999      -3.40539820E-26
  -12.9600000      -5.69388523E-26
  -12.8400002      -6.85787353E-26
  -12.7200003      -5.86831470E-26
  -12.6000004      -2.02142140E-26
  -12.4799995       4.62246082E-26
  -12.3599997       1.28749557E-25
  -12.2399998       2.03083538E-25
  -12.1199999       2.35665268E-25
  -12.0000000       1.91911246E-25
  -11.8800001       4.90638819E-26
  -11.7600002      -1.88967883E-25
  -11.6400003      -4.79422327E-25
  -11.5200005      -7.37125534E-25
  -11.3999996      -8.45269785E-25
  -11.2799997      -6.83707374E-25
  -11.1599998      -1.72950173E-25
  -11.0400000       6.74738765E-25
  -10.9200001       1.71276336E-24
  -10.8000002       2.64640134E-24
  -10.6800003       3.06755012E-24
  -10.5600004       2.54964242E-24
  -10.4399996       7.97870042E-25
  -10.3199997      -2.17309308E-24
  -10.1999998      -5.88581704E-24
  -10.0799999      -9.34031112E-24
  -9.96000004      -1.11169332E-23
  -9.84000015      -9.68624319E-24
  -9.72000027      -3.91639423E-24
  -9.60000038       6.30810493E-24
  -9.47999954       1.95259751E-23
  -9.35999966       3.24301633E-23
  -9.23999977       4.01338350E-23
  -9.11999989       3.71430045E-23
  -9.00000000       1.90384937E-23
  -8.88000011      -1.53829502E-23
  -8.76000023      -6.20464346E-23
  -8.64000034      -1.10391466E-22
  -8.52000046      -1.43874471E-22
  -8.39999962      -1.42852802E-22
  -8.27999973      -9.00122226E-23
  -8.15999985       2.23160293E-23
  -8.03999996       1.84585904E-22
  -7.92000008       3.64744872E-22
  -7.80000019       5.08196514E-22
  -7.67999983       5.45625175E-22
  -7.55999994       4.09842472E-22
  -7.44000006       6.02648458E-23
  -7.32000017      -4.89678149E-22
  -7.19999981      -1.15020060E-21
  -7.07999992      -1.74804105E-21
  -6.96000004      -2.04446877E-21
  -6.84000015      -1.78457573E-21
  -6.71999979      -7.76390945E-22
  -6.59999990       1.01243605E-21
  -6.48000002       3.36448545E-21
  -6.36000013       5.76248225E-21
  -6.23999977       7.41555868E-21
  -6.11999989       7.39011964E-21
  -6.00000000       4.85235941E-21
  -5.88000011      -6.04149263E-22
  -5.76000023      -8.61314657E-21
  -5.63999987      -1.77780323E-20
  -5.51999998      -2.56286613E-20
  -5.40000010      -2.89096878E-20
  -5.28000021      -2.42651963E-20
  -5.15999985      -9.28658387E-21
  -5.03999996       1.62422875E-20
  -4.92000008       4.92104448E-20
  -4.80000019       8.25727747E-20
  -4.67999983       1.05715285E-19
  -4.55999994       1.06136436E-19
  -4.44000006       7.25318167E-20
  -4.32000017      -1.03238694E-21
  -4.19999981      -1.10660817E-19
  -4.07999992      -2.39151357E-19
  -3.96000004      -3.55045254E-19
  -3.83999991      -4.15681496E-19
  -3.72000003      -3.75173816E-19
  -3.59999990      -1.97134265E-19
  -3.48000002       1.29569261E-19
  -3.35999990       5.75446236E-19
  -3.24000001       1.06027577E-18
  -3.11999989       1.45374842E-18
  -3.00000000       1.59159848E-18
  -2.88000011       1.30945979E-18
  -2.75999999       4.92383757E-19
  -2.64000010      -8.67634191E-19
  -2.51999998      -2.61958422E-18
  -2.40000010      -4.42471028E-18
  -2.27999997      -5.77011582E-18
  -2.16000009      -6.03977753E-18
  -2.03999996      -4.64798742E-18
  -1.91999996      -1.22437610E-18
  -1.79999995       4.18002405E-18
  -1.67999995       1.09156425E-17
  -1.55999994       1.76497645E-17
  -1.44000006       2.24394314E-17
  -1.32000005       2.30104656E-17
  -1.20000005       1.72541836E-17
  -1.08000004       3.89727386E-18
 -0.959999979      -1.67671347E-17
 -0.839999974      -4.22641350E-17
 -0.720000029      -6.76578287E-17
 -0.600000024      -8.58298419E-17
 -0.479999989      -8.84784875E-17
 -0.360000014      -6.78740008E-17
 -0.239999995      -1.92155595E-17
 -0.119999997       5.67909518E-17
  -1.11022302E-15   1.51733247E-16
  0.119999997       2.48417690E-16
  0.239999995       3.21675902E-16
  0.360000014       3.41624984E-16
  0.479999989       2.79542419E-16
  0.600000024       1.15900789E-16
  0.720000029      -1.50639595E-16
  0.839999974      -4.95215483E-16
  0.959999979      -8.62183508E-16
   1.08000004      -1.16654754E-15
   1.20000005      -1.30345019E-15
   1.32000005      -1.16656437E-15
   1.44000006      -6.74311600E-16
   1.55999994       1.99539085E-16
   1.67999995       1.39676929E-15
   1.79999995       2.75488551E-15
   1.91999996       4.00506951E-15
   2.03999996       4.79531525E-15
   2.16000009       4.74288476E-15
   2.27999997       3.51470011E-15
   2.40000010       9.27080314E-16
   2.51999998      -2.95161463E-15
   2.64000010      -7.71867328E-15
   2.75999999      -1.26021274E-14
   2.88000011      -1.64992108E-14
   3.00000000      -1.81065066E-14
   3.11999989      -1.61455779E-14
   3.24000001      -9.66723870E-15
   3.35999990       1.60654018E-15
   3.48000002       1.69672067E-14
   3.59999990       3.45117103E-14
   3.72000003       5.11274203E-14
   3.83999991       6.27420072E-14
   3.96000004       6.48765980E-14
   4.07999992       5.34867188E-14
   4.19999981       2.60069659E-14
   4.32000017      -1.75577428E-14
   4.44000006      -7.37148718E-14
   4.55999994      -1.34998254E-13
   4.67999983      -1.90164277E-13
   4.80000019      -2.25259183E-13
   4.92000008      -2.25624681E-13
   5.03999996      -1.78733086E-13
   5.15999985      -7.75350921E-14
   5.28000021       7.62064091E-14
   5.40000010       2.69289067E-13
   5.51999998       4.75918946E-13
   5.63999987       6.58744597E-13
   5.76000023       7.72569292E-13
   5.88000011       7.70846820E-13
   6.00000000       6.14540862E-13
   6.11999989       2.82329525E-13
   6.23999977      -2.19443048E-13
   6.36000013      -8.49100087E-13
   6.48000002      -1.52645008E-12
   6.59999990      -2.13607669E-12
   6.71999979      -2.53842889E-12
   6.84000015      -2.58893840E-12
   6.96000004      -2.16393158E-12
   7.07999992      -1.19044921E-12
   7.19999981       3.24462001E-13
   7.32000017       2.27061425E-12
   7.44000006       4.42377081E-12
   7.55999994       6.45250563E-12
   7.67999983       7.94667023E-12
   7.80000019       8.46844296E-12
   7.92000008       7.62313389E-12
   8.03999996       5.14260292E-12
   8.15999985       9.69943093E-13
   8.27999973      -4.66917043E-12
   8.39999962      -1.12246644E-11
   8.52000046      -1.78251303E-11
   8.64000034      -2.33373685E-11
   8.76000023      -2.64873679E-11
   8.88000011      -2.60384526E-11
   9.00000000      -2.10115536E-11
   9.11999989      -1.09216074E-11
   9.23999977       4.00517076E-12
   9.35999966       2.26741508E-11
   9.47999954       4.30666024E-11
   9.60000038       6.23204752E-11
   9.72000027       7.69690700E-11
   9.84000015       8.33390579E-11
   9.96000004       7.80837547E-11
   10.0799999       5.88010474E-11
   10.1999998       2.46591341E-11
   10.3199997      -2.30652650E-11
   10.4399996      -8.06410078E-11
   10.5600004      -1.41828091E-10
   10.6800003      -1.98192462E-10
   10.8000002      -2.39829684E-10
   10.9200001      -2.56484750E-10
   11.0400000      -2.38993519E-10
   11.1599998      -1.80907678E-10
   11.2799997      -8.01068725E-11
   11.3999996       5.98379263E-11
   11.5200005       2.28801908E-10
   11.6400003       4.09979189E-10
   11.7600002       5.80670456E-10
   11.8800001       7.14074633E-10
   12.0000000       7.82053922E-10
   12.1199999       7.58698548E-10
   12.2399998       6.24376328E-10
   12.3599997       3.69821479E-10
   12.4799995      -2.76277915E-13
   12.6000004      -4.64759953E-10
   12.7200003      -9.85119097E-10
   12.8400002      -1.50667057E-09
   12.9600000      -1.96206429E-09
   13.0799999      -2.27712404E-09
   13.1999998      -2.37873965E-09
   13.3199997      -2.20421792E-09
   13.4399996      -1.71122327E-09
   13.5600004      -8.87201035E-10
   13.6800003       2.42937587E-10
   13.8000002       1.61209579E-09
   13.9200001       3.11031489E-09
   14.0400000       4.58892391E-09
   14.1599998       5.86987214E-09
   14.2799997       6.76007783E-09
   14.3999996       7.07002856E-09
   14.5200005       6.63532029E-09
   14.6400003       5.33930011E-09
   14.7600002       3.13462079E-09
   14.8800001       6.13396139E-11
   15.0000000      -3.74076103E-09
   15.1199999      -8.02767719E-09
   15.2399998      -1.24560220E-08
   15.3599997      -1.65980456E-08
   15.4799995      -1.99667891E-08
   15.6000004      -2.20505285E-08
   15.7200003      -2.23546994E-08
   15.8400002      -2.04488195E-08
   15.9600000      -1.60152940E-08
   16.0799999      -8.89665497E-09
   16.2000008       8.62378779E-10
   16.3199997       1.29814968E-08
   16.4400005       2.69232494E-08
   16.5599995       4.18861035E-08
   16.6800003       5.68143257E-08
   16.7999992       7.04263812E-08
   16.9200001       8.12629395E-08
   17.0400009       8.77551187E-08
   17.1599998       8.83130440E-08
   17.2800007       8.14342300E-08
   17.3999996       6.58306050E-08
   17.5200005       4.05722886E-08
   17.6399994       5.24471089E-09
   17.7600002      -3.98853111E-08
   17.8799992      -9.37012956E-08
   18.0000000      -1.54074911E-07
   18.1200008      -2.17720768E-07
   18.2399998      -2.80081366E-07
   18.3600006      -3.35256260E-07
   18.4799995      -3.75991732E-07
   18.6000004      -3.93746575E-07
   18.7199993      -3.78848540E-07
   18.8400002      -3.20753060E-07
   18.9599991      -2.08411180E-07
   19.0799999      -3.07477812E-08
   19.2000008       2.22756782E-07
   19.3199997       5.61397314E-07
   19.4400005       9.92511332E-07
   19.5599995       1.52071800E-06
   19.6800003       2.14716943E-06
   19.7999992       2.86886393E-06
   19.9200001       3.67807002E-06
   20.0400009       4.56191992E-06
   20.1599998       5.50221284E-06
   20.2800007       6.47547586E-06
   20.3999996       7.45331408E-06
   20.5200005       8.40305802E-06
   20.6399994       9.28871850E-06
   20.7600002       1.00722245E-05
   20.8799992       1.07149017E-05
   21.0000000       1.11791360E-05
   21.1200008       1.14301529E-05
   21.2399998       1.14378154E-05
   21.3600006       1.11783602E-05
   21.4799995       1.06359521E-05
   21.6000004       9.80397635E-06
   21.7199993       8.68598363E-06
   21.8400002       7.29619978E-06
   21.9599991       5.65956589E-06
   22.0799999       3.81127461E-06
   22.2000008       1.79579865E-06
   22.3199997      -3.34552198E-07
   22.4400005      -2.52149789E-06
   22.5599995      -4.70298937E-06
   22.6800003      -6.81564870E-06
   22.7999992      -8.79732761E-06
   22.9200001      -1.05896534E-05
   23.0400009      -1.21404419E-05
   23.1599998      -1.34058482E-05
   23.2800007      -1.43521493E-05
   23.3999996      -1.49570669E-05
   23.5200005      -1.52105695E-05
   23.6399994      -1.51151089E-05
   23.7600002      -1.46853090E-05
   23.8799992      -1.39471022E-05
   24.0000000      -1.29363880E-05
   24.1200008      -1.16972888E-05
   24.2399998      -1.02800950E-05
   24.3600006      -8.73902172E-06
   24.4799995      -7.12987139E-06
   24.6000004      -5.50775576E-06
   24.7199993      -3.92494576E-06
   24.8400002      -2.42897522E-06
   24.9599991      -1.06105892E-06
   25.0799999       1.45116957E-07
   25.2000008       1.16419676E-06
   25.3199997       1.97954500E-06
   25.4400005       2.58323757E-06
   25.5599995       2.97568840E-06
   25.6800003       3.16496198E-06
   25.7999992       3.16583373E-06
   25.9200001       2.99866656E-06
   26.0400009       2.68817439E-06
   26.1599998       2.26214229E-06
   26.2800007       1.75016328E-06
   26.3999996       1.18244361E-06
   26.5200005       5.88719502E-07
   26.6399994      -2.68642752E-09
   26.7600002      -5.65656762E-07
   26.8799992      -1.07690971E-06
   27.0000000      -1.51647941E-06
   27.1200008      -1.86805380E-06
   27.2399998      -2.11919360E-06
   27.3600006      -2.26144607E-06
   27.4799995      -2.29037801E-06
   27.6000004      -2.20553738E-06
   27.7199993      -2.01035573E-06
   27.8400002      -1.71199827E-06
   27.9599991      -1.32115474E-06
   28.0799999      -8.51768220E-07
   28.2000008      -3.20691612E-07
   28.3199997       2.52739852E-07
   28.4400005       8.47228478E-07
   28.5599995       1.44013052E-06
   28.6800003       2.00816862E-06
   28.7999992       2.52823065E-06
   28.9200001       2.97823453E-06
   29.0400009       3.33803314E-06
   29.1599998       3.59031969E-06
   29.2800007       3.72149088E-06
   29.3999996       3.72241766E-06
   29.5200005       3.58907596E-06
   29.6399994       3.32298714E-06
   29.7600002       2.93142966E-06
   29.8799992       2.42738702E-06
   30.0000000       1.82921872E-06
   30.1200008       1.16004765E-06
   30.2399998       4.46878971E-07
   30.3600006      -2.80520197E-07
   30.4799995      -9.90931767E-07
   30.6000004      -1.65313043E-06
   30.7199993      -2.23738766E-06
   30.8400002      -2.71695944E-06
   30.9599991      -3.06947459E-06
   31.0799999      -3.27814723E-06
   31.2000008      -3.33274011E-06
   31.3199997      -3.23021595E-06
   31.4400005      -2.97503630E-06
   31.5599995      -2.57907550E-06
   31.6800003      -2.06114692E-06
   31.7999992      -1.44615967E-06
   31.9200001      -7.63936441E-07
   32.0400009      -4.77581032E-08
   32.1599998       6.67296831E-07
   32.2799988       1.34612890E-06
   32.4000015       1.95541429E-06
   32.5200005       2.46532591E-06
   32.6399994       2.85108285E-06
   32.7599983       3.09424172E-06
   32.8800011       3.18365824E-06
   33.0000000       3.11606709E-06
   33.1199989       2.89624063E-06
   33.2400017       2.53672761E-06
   33.3600006       2.05717629E-06
   33.4799995       1.48328638E-06
   33.5999985       8.45447573E-07
   33.7200012       1.77138659E-07
   33.8400002      -4.86824376E-07
   33.9599991      -1.11209545E-06
   34.0800018      -1.66656412E-06
   34.2000008      -2.12198688E-06
   34.3199997      -2.45540082E-06
   34.4399986      -2.65024642E-06
   34.5600014      -2.69714701E-06
   34.6800003      -2.59430885E-06
   34.7999992      -2.34752770E-06
   34.9199982      -1.96980682E-06
   35.0400009      -1.48061611E-06
   35.1599998      -9.04832973E-07
   35.2799988      -2.71425307E-07
   35.4000015       3.88049870E-07
   35.5200005       1.04105754E-06
   35.6399994       1.65571987E-06
   35.7599983       2.20239644E-06
   35.8800011       2.65513199E-06
   36.0000000       2.99290195E-06
   36.1199989       3.20059803E-06
   36.2400017       3.26971326E-06
   36.3600006       3.19869196E-06
   36.4799995       2.99293538E-06
   36.5999985       2.66446796E-06
   36.7200012       2.23128200E-06
   36.8400002       1.71639726E-06
   36.9599991       1.14668308E-06
   37.0800018       5.51502239E-07
   37.2000008      -3.87568662E-08
   37.3199997      -5.94189146E-07
   37.4399986      -1.08684753E-06
   37.5600014      -1.49211348E-06
   37.6800003      -1.78989455E-06
   37.7999992      -1.96559131E-06
   37.9199982      -2.01078251E-06
   38.0400009      -1.92359835E-06
   38.1599998      -1.70875921E-06
   38.2799988      -1.37727761E-06
   38.4000015      -9.45845898E-07
   38.5200005      -4.35938318E-07
   38.6399994       1.27319879E-07
   38.7599983       7.16451268E-07
   38.8800011       1.30301908E-06
   39.0000000       1.85903480E-06
   39.1199989       2.35829884E-06
   39.2400017       2.77760000E-06
   39.3600006       3.09771099E-06
   39.4799995       3.30412490E-06
   39.5999985       3.38751011E-06
   39.7200012       3.34386755E-06
   39.8400002       3.17440595E-06
   39.9599991       2.88516821E-06
   40.0800018       2.48645642E-06
   40.2000008       1.99211900E-06
   40.3199997       1.41876637E-06
   40.4399986       7.84981012E-07
   40.5600014       1.10581766E-07
   40.6800003      -5.84013264E-07
   40.7999992      -1.27829685E-06
   40.9199982      -1.95204893E-06
   41.0400009      -2.58559180E-06
   41.1599998      -3.15995317E-06
   41.2799988      -3.65698634E-06
   41.4000015      -4.05949322E-06
   41.5200005      -4.35140964E-06
   41.6399994      -4.51809365E-06
   41.7599983      -4.54675092E-06
   41.8800011      -4.42700548E-06
   42.0000000      -4.15160730E-06
   42.1199989      -3.71722922E-06
   42.2400017      -3.12530779E-06
   42.3600006      -2.38282837E-06
   42.4799995      -1.50297524E-06
   42.5999985      -5.05548599E-07
   42.7200012       5.82941539E-07
   42.8400002       1.72957618E-06
   42.9599991       2.89576656E-06
   43.0800018       4.03844615E-06
   43.2000008       5.11169173E-06
   43.3199997       6.06870708E-06
   43.4399986       6.86408112E-06
   43.5600014       7.45617854E-06
   43.6800003       7.80952269E-06
   43.7999992       7.89701244E-06
   43.9199982       7.70180486E-06
   44.0400009       7.21873357E-06
   44.1599998       6.45513637E-06
   44.2799988       5.43101532E-06
   44.4000015       4.17849969E-06
   44.5200005       2.74060744E-06
   44.6399994       1.16937724E-06
   44.7599983      -4.76531966E-07
   44.8800011      -2.13463568E-06
   45.0000000      -3.74164529E-06
   45.1199989      -5.23653625E-06
   45.2400017      -6.56348038E-06
   45.3600006      -7.67446454E-06
   45.4799995      -8.53145320E-06
   45.5999985      -9.10797371E-06
   45.7200012      -9.39004167E-06
   45.8400002      -9.37640289E-06
   45.9599991      -9.07808226E-06
   46.0800018      -8.51732511E-06
   46.2000008      -7.72598105E-06
   46.3199997      -6.74348576E-06
   46.4399986      -5.61455727E-06
   46.5600014      -4.38676761E-06
   46.6800003      -3.10813334E-06
   46.7999992      -1.82486974E-06
   46.9199982      -5.79417531E-07
   47.0400009       5.91155811E-07
   47.1599998       1.65632366E-06
   47.2799988       2.59280387E-06
   47.4000015       3.38479890E-06
   47.5200005       4.02380783E-06
   47.6399994       4.50805737E-06
   47.7599983       4.84163320E-06
   47.8800011       5.03339879E-06
   48.0000000       5.09578558E-06
   48.1199989       5.04356058E-06
   48.2400017       4.89264403E-06
   48.3600006       4.65905759E-06
   48.4799995       4.35805532E-06
   48.5999985       4.00348108E-06
   48.7200012       3.60735544E-06
   48.8400002       3.17971239E-06
   48.9599991       2.72864054E-06
   49.0800018       2.26051543E-06
   49.2000008       1.78036430E-06
   49.3199997       1.29231830E-06
   49.4399986       8.00094597E-07
   49.5600014       3.07458691E-07
   49.6800003      -1.81378880E-07
   49.7999992      -6.61469016E-07
   49.9199982      -1.12695648E-06
   50.0400009      -1.57105308E-06
   50.1599998      -1.98614862E-06
   50.2799988      -2.36405072E-06
   50.4000015      -2.69632915E-06
   50.5200005      -2.97473798E-06
   50.6399994      -3.19168089E-06
   50.7599983      -3.34068409E-06
   50.8800011      -3.41683881E-06
   51.0000000      -3.41718373E-06
   51.1199989      -3.34099491E-06
   51.2400017      -3.18996240E-06
   51.3600006      -2.96823396E-06
   51.4799995      -2.68232043E-06
   51.5999985      -2.34086565E-06
   51.7200012      -1.95428447E-06
   51.8400002      -1.53429733E-06
   51.9599991      -1.09338305E-06
   52.0800018      -6.44190720E-07
   52.2000008      -1.98946012E-07
   52.3199997       2.31098056E-07
   52.4399986       6.36128448E-07
   52.5600014       1.00811735E-06
   52.6800003       1.34101572E-06
   52.7999992       1.63078016E-06
   52.9199982       1.87522892E-06
   53.0400009       2.07374478E-06
   53.1599998       2.22685549E-06
   53.2799988       2.33574110E-06
   53.4000015       2.40172403E-06
   53.5200005       2.42580995E-06
   53.6399994       2.40833924E-06
   53.7599983       2.34880576E-06
   53.8800011       2.24587620E-06
   54.0000000       2.09763107E-06
   54.1199989       1.90200944E-06
   54.2400017       1.65742665E-06
   54.3600006       1.36349468E-06
   54.4799995       1.02176944E-06
   54.5999985       6.36425000E-07
   54.7200012       2.14764668E-07
   54.8400002      -2.32522424E-07
   54.9599991      -6.91421121E-07
   55.0800018      -1.14500529E-06
   55.2000008      -1.57420959E-06
   55.3199997      -1.95891971E-06
   55.4399986      -2.27930786E-06
   55.5600014      -2.51730876E-06
   55.6800003      -2.65810240E-06
   55.7999992      -2.69147085E-06
   55.9199982      -2.61288778E-06
   56.0400009      -2.42422379E-06
   56.1599998      -2.13397561E-06
   56.2799988      -1.75697414E-06
   56.4000015      -1.31356614E-06
   56.5200005      -8.28318321E-07
   56.6399994      -3.28339979E-07
   56.7599983       1.58644866E-07
   56.8800011       6.06313279E-07
   57.0000000       9.91673915E-07
   57.1199989       1.29674095E-06
   57.2400017       1.50980327E-06
   57.3600006       1.62617062E-06
   57.4799995       1.64833193E-06
   57.5999985       1.58550927E-06
   57.7200012       1.45265187E-06
   57.8400002       1.26896475E-06
   57.9599991       1.05611173E-06
   58.0800018       8.36262416E-07
   58.2000008       6.30166255E-07
   58.3199997       4.55431916E-07
   58.4399986       3.25166781E-07
   58.5600014       2.47092515E-07
   58.6800003       2.23204268E-07
   58.7999992       2.49983117E-07
   58.9199982       3.19115316E-07
   59.0400009       4.18622591E-07
   59.1599998       5.34267883E-07
   59.2799988       6.51077471E-07
   59.4000015       7.54816540E-07
   59.5200005       8.33265403E-07
   59.6399994       8.77176092E-07
   59.7599983       8.80828964E-07
   59.8800011       8.42158954E-07
   60.0000000       7.62474087E-07
   60.1199989       6.45833495E-07
   60.2400017       4.98190900E-07
   60.3600006       3.26431291E-07
   60.4799995       1.37435705E-07
   60.5999985      -6.27035703E-08
   60.7200012      -2.69217765E-07
   60.8400002      -4.78887102E-07
   60.9599991      -6.89940236E-07
   61.0800018      -9.01655596E-07
   61.2000008      -1.11373413E-06
   61.3199997      -1.32554339E-06
   61.4399986      -1.53535098E-06
   61.5600014      -1.73966464E-06
   61.6800003      -1.93278925E-06
   61.7999992      -2.10667849E-06
   61.9199982      -2.25112672E-06
   62.0400009      -2.35430252E-06
   62.1599998      -2.40358690E-06
   62.2799988      -2.38663688E-06
   62.4000015      -2.29257375E-06
   62.5200005      -2.11317297E-06
   62.6399994      -1.84393662E-06
   62.7599983      -1.48493598E-06
   62.8800011      -1.04133915E-06
   63.0000000      -5.23564495E-07
   63.1199989       5.29567110E-08
   63.2400017       6.68394307E-07
   63.3600006       1.29945738E-06
   63.4799995       1.92058155E-06
   63.5999985       2.50527091E-06
   63.7200012       3.02749118E-06
   63.8400002       3.46302022E-06
   63.9599991       3.79066432E-06
   64.0800018       3.99327519E-06
   64.1999969       4.05852097E-06
   64.3199997       3.97939039E-06
   64.4400024       3.75443415E-06
   64.5599976       3.38775567E-06
   64.6800003       2.88878869E-06
   64.8000031       2.27190003E-06
   64.9199982       1.55585280E-06
   65.0400009       7.63161722E-07
   65.1600037      -8.06277214E-08
   65.2799988      -9.47728893E-07
   65.4000015      -1.80895950E-06
   65.5199966      -2.63464290E-06
   65.6399994      -3.39555822E-06
   65.7600021      -4.06393610E-06
   65.8799973      -4.61447598E-06
   66.0000000      -5.02535659E-06
   66.1200027      -5.27919883E-06
   66.2399979      -5.36391872E-06
   66.3600006      -5.27341490E-06
   66.4800034      -5.00803299E-06
   66.5999985      -4.57474289E-06
   66.7200012      -3.98700422E-06
   66.8399963      -3.26429881E-06
   66.9599991      -2.43134627E-06
   67.0800018      -1.51703489E-06
   67.1999969      -5.53137909E-07
   67.3199997       4.27105647E-07
   67.4400024       1.39045233E-06
   67.5599976       2.30506157E-06
   67.6800003       3.14176395E-06
   67.8000031       3.87511591E-06
   67.9199982       4.48419723E-06
   68.0400009       4.95311951E-06
   68.1600037       5.27125985E-06
   68.2799988       5.43323176E-06
   68.4000015       5.43864553E-06
   68.5199966       5.29171075E-06
   68.6399994       5.00073247E-06
   68.7600021       4.57755777E-06
   68.8799973       4.03701551E-06
   69.0000000       3.39637700E-06
   69.1200027       2.67485552E-06
   69.2399979       1.89314244E-06
   69.3600006       1.07297046E-06
   69.4800034       2.36690212E-07
   69.5999985      -5.93162440E-07
   69.7200012      -1.39432257E-06
   69.8399963      -2.14528563E-06
   69.9599991      -2.82583119E-06
   70.0800018      -3.41757163E-06
   70.1999969      -3.90450623E-06
   70.3199997      -4.27355008E-06
   70.4400024      -4.51500955E-06
   70.5599976      -4.62296430E-06
   70.6800003      -4.59553075E-06
   70.8000031      -4.43497493E-06
   70.9199982      -4.14766328E-06
   71.0400009      -3.74385081E-06
   71.1600037      -3.23731547E-06
   71.2799988      -2.64485629E-06
   71.4000015      -1.98569342E-06
   71.5199966      -1.28080319E-06
   71.6399994      -5.52220115E-07
   71.7600021       1.77655821E-07
   71.8799973       8.86724251E-07
   72.0000000       1.55380383E-06
   72.1200027       2.15919840E-06
   72.2399979       2.68520830E-06
   72.3600006       3.11659369E-06
   72.4800034       3.44098908E-06
   72.5999985       3.64927791E-06
   72.7200012       3.73592161E-06