  -30.0000000       0.00000000    
  -29.8799992       0.00000000    
  -29.7600002       0.00000000    
  -29.6399994       0.00000000    
  -29.5200005       0.00000000    
  -29.3999996       1.77964905E-42
  -29.2800007      -1.79352190E-41
  -29.1599998      -7.30665045E-41
  -29.0400009       1.04566293E-40
  -28.9200001       1.00086201E-39
  -28.7999992       1.54482226E-39
  -28.6800003      -3.12402817E-39
  -28.5599995      -1.71496806E-38
  -28.4400005      -2.79655565E-38
  -28.3199997       2.42161751E-39
  -28.2000008       9.61084924E-38
  -28.0799999       1.65212741E-37
  -27.9599991      -1.90835691E-39
  -27.8400002      -4.43236534E-37
  -27.7199993      -4.20420928E-37
  -27.6000004       1.77980277E-36
  -27.4799995       7.29927895E-36
  -27.3600006       1.27792422E-35
  -27.2399998       6.39402346E-36
  -27.1200008      -2.97660941E-35
  -27.0000000      -1.03829579E-34
  -26.8799992      -1.85532659E-34
  -26.7600002      -1.82754141E-34
  -26.6399994       4.21064258E-35
  -26.5200005       5.83946977E-34
  -26.3999996       1.34236413E-33
  -26.2800007       1.88357909E-33
  -26.1599998       1.46020303E-33
  -26.0400009      -6.75720759E-34
  -25.9200001      -4.66247528E-33
  -25.7999992      -9.35613937E-33
  -25.6800003      -1.20612509E-32
  -25.5599995      -9.16810289E-33
  -25.4400005       2.10545218E-33
  -25.3199997       2.13042599E-32
  -25.2000008       4.28018681E-32
  -25.0799999       5.58302864E-32
  -24.9599991       4.75445882E-32
  -24.8400002       8.93389739E-33
  -24.7199993      -5.83038909E-32
  -24.6000004      -1.37121628E-31
  -24.4799995      -1.96004279E-31
  -24.3600006      -1.97124666E-31
  -24.2399998      -1.10732602E-31
  -24.1200008       6.82755272E-32
  -24.0000000       3.07659198E-31
  -23.8799992       5.35224865E-31
  -23.7600002       6.50738203E-31
  -23.6399994       5.53457206E-31
  -23.5200005       1.81933823E-31
  -23.3999996      -4.42631928E-31
  -23.2800007      -1.18400042E-30
  -23.1599998      -1.78848136E-30
  -23.0400009      -1.93109742E-30
  -22.9200001      -1.31898949E-30
  -22.7999992       1.61161710E-31
  -22.6800003       2.29528174E-30
  -22.5599995       4.46427552E-30
  -22.4400005       5.71352133E-30
  -22.3199997       5.01605670E-30
  -22.2000008       1.70573352E-30
  -22.0799999      -4.03703918E-30
  -21.9599991      -1.08454005E-29
  -21.8400002      -1.61948650E-29
  -21.7199993      -1.69581758E-29
  -21.6000004      -1.04832241E-29
  -21.4799995       4.03072612E-30
  -21.3600006       2.43000329E-29
  -21.2399998       4.44365844E-29
  -21.1200008       5.56723273E-29
  -21.0000000       4.86075829E-29
  -20.8799992       1.67975999E-29
  -20.7600002      -3.91130703E-29
  -20.6399994      -1.08091097E-28
  -20.5200005      -1.67983943E-28
  -20.3999996      -1.88941215E-28
  -20.2800007      -1.41710010E-28
  -20.1599998      -9.92685532E-30
  -20.0400009       1.96540597E-28
  -19.9200001       4.32075787E-28
  -19.7999992       6.15405491E-28
  -19.6800003       6.44112007E-28
  -19.5599995       4.24985476E-28
  -19.4400005      -8.39520928E-29
  -19.3199997      -8.30535237E-28
  -19.2000008      -1.64100864E-27
  -19.0799999      -2.22632899E-27
  -18.9599991      -2.23642644E-27
  -18.8400002      -1.36532130E-27
  -18.7199993       5.07782504E-28
  -18.6000004       3.17709878E-27
  -18.4799995       6.02195923E-27
  -18.3600006       8.03171104E-27
  -18.2399998       7.99170562E-27
  -18.1200008       4.84208640E-27
  -18.0000000      -1.83785274E-27
  -17.8799992      -1.13384187E-26
  -17.7600002      -2.15037998E-26
  -17.6399994      -2.88021467E-26
  -17.5200005      -2.89545756E-26
  -17.3999996      -1.81740194E-26
  -17.2800007       5.14048844E-27
  -17.1599998       3.86619990E-26
  -17.0400009       7.49843660E-26
  -16.9200001       1.01805563E-25
  -16.7999992       1.04066013E-25
  -16.6800003       6.82368812E-26
  -16.5599995      -1.17672686E-26
  -16.4400005      -1.28466196E-25
  -16.3199997      -2.56700713E-25
  -16.2000008      -3.54110120E-25
  -16.0799999      -3.68346224E-25
  -15.9600000      -2.51697929E-25
  -15.8400002       1.86562523E-26
  -15.7200003       4.19551334E-25
  -15.6000004       8.67359172E-25
  -15.4799995       1.21880282E-24
  -15.3599997       1.29431860E-24
  -15.2399998       9.26451559E-25
  -15.1199999       2.77909164E-26
  -15.0000000      -1.33686542E-24
  -14.8800001      -2.89842150E-24
  -14.7600002      -4.18033210E-24
  -14.6400003      -4.56959986E-24
  -14.5200005      -3.47266550E-24
  -14.3999996      -5.41546553E-25
  -14.2799997       4.07692112E-24
  -14.1599998       9.54740131E-24
  -14.0400000       1.43053173E-23
  -13.9200001       1.62593762E-23
  -13.8000002       1.32847016E-23
  -13.6800003       3.97283053E-24
  -13.5600004      -1.15039980E-23
  -13.4399996      -3.06677755E-23
  -13.3199997      -4.84767427E-23
  -13.1999998      -5.78559171E-23
  -13.0799999      -5.12134022E-23
  -12.9600000      -2.28859388E-23
  -12.8400002       2.78989242E-23
  -12.7200003       9.43376290E-23
  -12.6000004       1.60720766E-22
  -12.4799995       2.03580400E-22
  -12.3599997       1.96110619E-22
  -12.2399998       1.15901085E-22
  -12.1199999      -4.51037817E-23
  -12.0000000      -2.70793532E-22
  -11.8800001      -5.14680976E-22
  -11.7600002      -7.01153608E-22
  -11.6400003      -7.37333925E-22
  -11.5200005      -5.36575463E-22
  -11.3999996      -5.11522812E-23
  -11.2799997       6.92572518E-22
  -11.1599998       1.56723766E-21
  -11.0400000       2.33886570E-21
  -10.9200001       2.69456952E-21
  -10.8000002       2.31010866E-21
  -10.6800003       9.53563248E-22
  -10.5600004      -1.39242952E-21
  -10.4399996      -4.42184866E-21
  -10.3199997      -7.45238679E-21
  -10.1999998      -9.47235135E-21
  -10.0799999      -9.31879625E-21
  -9.96000004      -5.98979738E-21
  -9.84000015       9.48831900E-22
  -9.72000027       1.09513155E-20
  -9.60000038       2.22059867E-20
  -9.47999954       3.16273153E-20
  -9.35999966       3.52574718E-20
  -9.23999977       2.91375954E-20
  -9.11999989       1.05857768E-20
  -9.00000000      -2.03401418E-20
  -8.88000011      -5.95769663E-20
  -8.76000023      -9.84811381E-20
  -8.64000034      -1.24443468E-19
  -8.52000046      -1.23043749E-19
  -8.39999962      -8.17698409E-20
  -8.27999973       5.15309772E-21
  -8.15999985       1.31828860E-19
  -8.03999996       2.77142108E-19
  -7.92000008       4.04324462E-19
  -7.80000019       4.65175512E-19
  -7.67999983       4.09733447E-19
  -7.55999994       2.00874427E-19
  -7.44000006      -1.68417411E-19
  -7.32000017      -6.59178834E-19
  -7.19999981      -1.17743649E-18
  -7.07999992      -1.57778891E-18
  -6.96000004      -1.68411305E-18
  -6.84000015      -1.32875647E-18
  -6.71999979      -4.06656258E-19
  -6.59999990       1.06515737E-18
  -6.48000002       2.89794621E-18
  -6.36000013       4.71050656E-18
  -6.23999977       5.95595766E-18
  -6.11999989       6.00890136E-18
  -6.00000000       4.31372870E-18
  -5.88000011       5.77427902E-19
  -5.76000023      -5.02965972E-18
  -5.63999987      -1.17195297E-17
  -5.51999998      -1.80427778E-17
  -5.40000010      -2.20151275E-17
  -5.28000021      -2.14506644E-17
  -5.15999985      -1.44951822E-17
  -5.03999996      -2.93927464E-19
  -4.92000008       2.03368409E-17
  -4.80000019       4.44203169E-17
  -4.67999983       6.67236572E-17
  -4.55999994       8.02471801E-17
  -4.44000006       7.74063309E-17
  -4.32000017       5.18692801E-17
  -4.19999981       8.19531984E-19
  -4.07999992      -7.27958379E-17
  -3.96000004      -1.58645486E-16
  -3.83999991      -2.38712122E-16
  -3.72000003      -2.88926062E-16
  -3.59999990      -2.83082223E-16
  -3.48000002      -1.98921902E-16
  -3.35999990      -2.56444568E-17
  -3.24000001       2.28550453E-16
  -3.11999989       5.30845024E-16
  -3.00000000       8.22327961E-16
  -2.88000011       1.02267073E-15
  -2.75999999       1.04216319E-15
  -2.64000010       8.00905492E-16
  -2.51999998       2.53062157E-16
  -2.40000010      -5.87979514E-16
  -2.27999997      -1.62950515E-15
  -2.16000009      -2.69135656E-15
  -2.03999996      -3.51636982E-15
  -1.91999996      -3.80380855E-15
  -1.79999995      -3.26627170E-15
  -1.67999995      -1.70501496E-15
  -1.55999994       9.07665366E-16
  -1.44000006       4.35617059E-15
  -1.32000005       8.14045164E-15
  -1.20000005       1.14871390E-14
  -1.08000004       1.34293542E-14
 -0.959999979       1.29613210E-14
 -0.839999974       9.25863254E-15
 -0.720000029       1.93658943E-15
 -0.600000024      -8.69928078E-15
 -0.479999989      -2.14705064E-14
 -0.360000014      -3.42758353E-14
 -0.239999995      -4.42315455E-14
 -0.119999997      -4.80359127E-14
  -1.11022302E-15  -4.25533971E-14
  0.119999997      -2.55642658E-14
  0.239999995       3.42879064E-15
  0.360000014       4.24931086E-14
  0.479999989       8.68427915E-14
  0.600000024       1.28883205E-13
  0.720000029       1.58865583E-13
  0.839999974       1.66209996E-13
  0.959999979       1.41433171E-13
   1.08000004       7.84721206E-14
   1.20000005      -2.29500629E-14
   1.32000005      -1.55386175E-13
   1.44000006      -3.02677669E-13
   1.55999994      -4.40404495E-13
   1.67999995      -5.38112957E-13
   1.79999995      -5.63408640E-13
   1.91999996      -4.87659555E-13
   2.03999996      -2.92669263E-13
   2.16000009       2.26862511E-14
   2.27999997       4.37133131E-13
   2.40000010       9.04357806E-13
   2.51999998       1.35428225E-12
   2.64000010       1.69908358E-12
   2.75999999       1.84412468E-12
   2.88000011       1.70309936E-12
   3.00000000       1.21576523E-12
   3.11999989       3.65757609E-13
   3.24000001      -8.04636089E-13
   3.35999990      -2.18608660E-12
   3.48000002      -3.60323295E-12
   3.59999990      -4.82719116E-12
   3.72000003      -5.60015966E-12
   3.83999991      -5.67082579E-12
   3.96000004      -4.83716279E-12
   4.07999992      -2.99126023E-12
   4.19999981      -1.59368219E-13
   4.32000017       3.47029241E-12
   4.44000006       7.53894516E-12
   4.55999994       1.15332171E-11
   4.67999983       1.48281751E-11
   4.80000019       1.67562648E-11
   4.92000008       1.66968453E-11
   5.03999996       1.41770649E-11
   5.15999985       8.97146853E-12
   5.28000021       1.18593059E-12
   5.40000010      -8.68869473E-12
   5.51999998      -1.97658539E-11
   5.63999987      -3.08042619E-11
   5.76000023      -4.03036562E-11
   5.88000011      -4.66518282E-11
   6.00000000      -4.83121980E-11
   6.11999989      -4.40347828E-11
   6.23999977      -3.30681801E-11
   6.36000013      -1.53472027E-11
   6.48000002       8.36988378E-12
   6.59999990       3.64380574E-11
   6.71999979       6.63548383E-11
   6.84000015       9.48932044E-11
   6.96000004       1.18339880E-10
   7.07999992       1.32830372E-10
   7.19999981       1.34761119E-10
   7.32000017       1.21248483E-10
   7.44000006       9.05946776E-11
   7.55999994       4.27133259E-11
   7.67999983      -2.05380712E-11
   7.80000019      -9.51729945E-11
   7.92000008      -1.75088596E-10
   8.03999996      -2.52317806E-10
   8.15999985      -3.17546711E-10
   8.27999973      -3.60898533E-10
   8.39999962      -3.72955916E-10
   8.52000046      -3.45956069E-10
   8.64000034      -2.75054590E-10
   8.76000023      -1.59517524E-10
   8.88000011      -3.67246598E-12
   9.00000000       1.82562257E-10
   9.11999989       3.83742288E-10
   9.23999977       5.79688908E-10
   9.35999966       7.47073070E-10
   9.47999954       8.61759164E-10
   9.60000038       9.01755948E-10
   9.72000027       8.50496285E-10
   9.84000015       7.00043745E-10
   9.96000004       4.53741489E-10
   10.0799999       1.27777122E-10
   10.1999998      -2.48824045E-10
   10.3199997      -6.36141417E-10
   10.4399996      -9.87391835E-10
   10.5600004      -1.25491406E-09
   10.6800003      -1.39762690E-09
   10.8000002      -1.38912293E-09
   10.9200001      -1.22524579E-09
   11.0400000      -9.29779420E-10
   11.1599998      -5.56812263E-10
   11.2799997      -1.88492069E-10
   11.3999996       7.27513813E-11
   11.5200005       1.17807639E-10
   11.6400003      -1.50208498E-10
   11.7600002      -7.93214605E-10
   11.8800001      -1.81403770E-09
   12.0000000      -3.13423731E-09
   12.1199999      -4.57783411E-09
   12.2399998      -5.86513549E-09
   12.3599997      -6.62054545E-09
   12.4799995      -6.39737197E-09
   12.6000004      -4.72117501E-09
   12.7200003      -1.15108401E-09
   12.8400002       4.64387817E-09
   12.9600000       1.27991928E-08
   13.0799999       2.31682513E-08
   13.1999998       3.52453036E-08
   13.3199997       4.81099960E-08
   13.4399996       6.04060517E-08
   13.5600004       7.03658998E-08
   13.6800003       7.58909309E-08
   13.8000002       7.46933964E-08
   13.9200001       6.45012577E-08
   14.0400000       4.33213465E-08
   14.1599998       9.74970327E-09
   14.2799997      -3.66886219E-08
   14.3999996      -9.51939469E-08
   14.5200005      -1.63369393E-07
   14.6400003      -2.36952857E-07
   14.7600002      -3.09636590E-07
   14.8800001      -3.73005321E-07
   15.0000000      -4.16619287E-07
   15.1199999      -4.28262382E-07
   15.2399998      -3.94364093E-07
   15.3599997      -3.00593882E-07
   15.4799995      -1.32613437E-07
   15.6000004       1.23042227E-07
   15.7200003       4.77994774E-07
   15.8400002       9.41016310E-07
   15.9600000       1.51704785E-06
   16.0799999       2.20630659E-06
   16.2000008       3.00355168E-06
   16.3199997       3.89756951E-06
   16.4400005       4.87093303E-06
   16.5599995       5.90008085E-06
   16.6800003       6.95573863E-06
   16.7999992       8.00369162E-06
   16.9200001       9.00589293E-06
   17.0400009       9.92186870E-06
   17.1599998       1.07103679E-05
   17.2800007       1.13311717E-05
   17.3999996       1.17469835E-05
   17.5200005       1.19252900E-05
   17.6399994       1.18400894E-05
   17.7600002       1.14734021E-05
   17.8799992       1.08164477E-05
   18.0000000       9.87044223E-06
   18.1200008       8.64694175E-06
   18.2399998       7.16770728E-06
   18.3600006       5.46410047E-06
   18.4799995       3.57602767E-06
   18.6000004       1.55048735E-06
   18.7199993      -5.60198487E-07
   18.8400002      -2.70038413E-06
   18.9599991      -4.81321786E-06
   19.0799999      -6.84277757E-06
   19.2000008      -8.73610952E-06
   19.3199997      -1.04450828E-05
   19.4400005      -1.19279775E-05
   19.5599995      -1.31507386E-05
   19.6800003      -1.40878728E-05
   19.7999992      -1.47229621E-05
   19.9200001      -1.50488077E-05
   20.0400009      -1.50672367E-05
   20.1599998      -1.47886112E-05
   20.2800007      -1.42310864E-05
   20.3999996      -1.34196998E-05
   20.5200005      -1.23853215E-05
   20.6399994      -1.11635354E-05
   20.7600002      -9.79348624E-06
   20.8799992      -8.31672423E-06
   21.0000000      -6.77608296E-06
   21.1200008      -5.21457923E-06
   21.2399998      -3.67435632E-06
   21.3600006      -2.19567119E-06
   21.4799995      -8.15911278E-07
   21.6000004       4.31338208E-07
   21.7199993       1.51717632E-06
   21.8400002       2.41819703E-06
   21.9599991       3.11720191E-06
   22.0799999       3.60377908E-06
   22.2000008       3.87471073E-06
   22.3199997       3.93416758E-06
   22.4400005       3.79365360E-06
   22.5599995       3.47166838E-06
   22.6800003       2.99308181E-06
   22.7999992       2.38821076E-06
   22.9200001       1.69162752E-06
   23.0400009       9.40738232E-07
   23.1599998       1.74190731E-07
   23.2800007      -5.69811391E-07
   23.3999996      -1.25520194E-06
   23.5200005      -1.84966120E-06
   23.6399994      -2.32605203E-06
   23.7600002      -2.66359666E-06
   23.8799992      -2.84873295E-06
   24.0000000      -2.87559351E-06
   24.1200008      -2.74609124E-06
   24.2399998      -2.46960440E-06
   24.3600006      -2.06228674E-06
   24.4799995      -1.54605254E-06
   24.6000004      -9.47300066E-07
   24.7199993      -2.95452821E-07
   24.8400002       3.78591892E-07
   24.9599991       1.04401818E-06
   25.0799999       1.67156441E-06
   25.2000008       2.23483835E-06
   25.3199997       2.71140925E-06
   25.4400005       3.08363656E-06
   25.5599995       3.33920116E-06
   25.6800003       3.47134278E-06
   25.7999992       3.47880359E-06
   25.9200001       3.36551511E-06
   26.0400009       3.14006797E-06
   26.1599998       2.81501184E-06
   26.2800007       2.40604527E-06
   26.3999996       1.93115079E-06
   26.5200005       1.40972543E-06
   26.6399994       8.61751801E-07
   26.7600002       3.07046548E-07
   26.8799992      -2.35392903E-07
   27.0000000      -7.47929619E-07
   27.1200008      -1.21471567E-06
   27.2399998      -1.62201536E-06
   27.3600006      -1.95843609E-06
   27.4799995      -2.21508549E-06
   27.6000004      -2.38566986E-06
   27.7199993      -2.46654895E-06
   27.8400002      -2.45676051E-06
   27.9599991      -2.35801144E-06
   28.0799999      -2.17464253E-06
   28.2000008      -1.91355230E-06
   28.3199997      -1.58407556E-06
   28.4400005      -1.19780134E-06
   28.5599995      -7.68316738E-07
   28.6800003      -3.10874981E-07
   28.7999992       1.58024477E-07
   28.9200001       6.21136621E-07
   29.0400009       1.06104528E-06
   29.1599998       1.46079628E-06
   29.2800007       1.80456561E-06
   29.3999996       2.07833591E-06
   29.5200005       2.27055125E-06
   29.6399994       2.37271138E-06
   29.7600002       2.37987592E-06
   29.8799992       2.29104194E-06
   30.0000000       2.10936514E-06
   30.1200008       1.84220414E-06
   30.2399998       1.50096650E-06
   30.3600006       1.10075121E-06
   30.4799995       6.59790373E-07
   30.6000004       1.98703773E-07
   30.7199993      -2.60408257E-07
   30.8400002      -6.94996004E-07
   30.9599991      -1.08316840E-06
   31.0799999      -1.40482200E-06
   31.2000008      -1.64272899E-06
   31.3199997      -1.78352252E-06
   31.4400005      -1.81851635E-06
   31.5599995      -1.74430386E-06
   31.6800003      -1.56309329E-06
   31.7999992      -1.28274348E-06
   31.9200001      -9.16490535E-07
   32.0400009      -4.82364612E-07
   32.1599998      -2.32132669E-09
   32.2799988       4.98872737E-07
   32.4000015       9.94942980E-07
   32.5200005       1.45952856E-06
   32.6399994       1.86764328E-06
   32.7599983       2.19709318E-06
   32.8800011       2.42976444E-06
   33.0000000       2.55270788E-06
   33.1199989       2.55894770E-06
   33.2400017       2.44796684E-06
   33.3600006       2.22583299E-06
   33.4799995       1.90495052E-06
   33.5999985       1.50345318E-06
   33.7200012       1.04426204E-06
   33.8400002       5.53864254E-07
   33.9599991       6.08782571E-08
   34.0800018      -4.05514299E-07
   34.2000008      -8.17182297E-07
   34.3199997      -1.14861473E-06
   34.4399986      -1.37836162E-06
   34.5600014      -1.49026494E-06
   34.6800003      -1.47441995E-06
   34.7999992      -1.32781179E-06
   34.9199982      -1.05460026E-06
   35.0400009      -6.66037408E-07
   35.1599998      -1.80023775E-07
   35.2799988       3.79672485E-07
   35.4000015       9.84499138E-07
   35.5200005       1.60245440E-06
   35.6399994       2.19961225E-06
   35.7599983       2.74177296E-06
   35.8800011       3.19616288E-06
   36.0000000       3.53310952E-06
   36.1199989       3.72761315E-06
   36.2400017       3.76074240E-06
   36.3600006       3.62077890E-06
   36.4799995       3.30405283E-06
   36.5999985       2.81541429E-06
   36.7200012       2.16830836E-06
   36.8400002       1.38443079E-06
   36.9599991       4.92971253E-07
   37.0800018      -4.70538481E-07
   37.2000008      -1.46572211E-06
   37.3199997      -2.44914008E-06
   37.4399986      -3.37627012E-06
   37.5600014      -4.20359311E-06
   37.6800003      -4.89067543E-06
   37.7999992      -5.40214887E-06
   37.9199982      -5.70946668E-06
   38.0400009      -5.79236485E-06
   38.1599998      -5.63992762E-06
   38.2799988      -5.25121550E-06
   38.4000015      -4.63541119E-06
   38.5200005      -3.81148493E-06
   38.6399994      -2.80739323E-06
   38.7599983      -1.65886115E-06
   38.8800011      -4.07812621E-07
   39.0000000       8.99458428E-07
   39.1199989       2.21428218E-06
   39.2400017       3.48766230E-06
   39.3600006       4.67227665E-06
   39.4799995       5.72433237E-06
   39.5999985       6.60519117E-06
   39.7200012       7.28269970E-06
   39.8400002       7.73218380E-06
   39.9599991       7.93709660E-06
   40.0800018       7.88930629E-06
   40.2000008       7.58908300E-06
   40.3199997       7.04479180E-06
   40.4399986       6.27235931E-06
   40.5600014       5.29456884E-06
   40.6800003       4.14021724E-06
   40.7999992       2.84318412E-06
   40.9199982       1.44143382E-06
   41.0400009      -2.40335680E-08
   41.1599998      -1.51027507E-06
   41.2799988      -2.97354541E-06
   41.4000015      -4.37048311E-06
   41.5200005      -5.65933942E-06
   41.6399994      -6.80123094E-06
   41.7599983      -7.76139586E-06
   41.8800011      -8.51039931E-06
   42.0000000      -9.02523607E-06
   42.1199989      -9.29027829E-06
   42.2400017      -9.29797625E-06
   42.3600006      -9.04928129E-06
   42.4799995      -8.55372218E-06
   42.5999985      -7.82911411E-06
   42.7200012      -6.90090610E-06
   42.8400002      -5.80117330E-06
   42.9599991      -4.56732914E-06
   43.0800018      -3.24059556E-06
   43.2000008      -1.86434750E-06
   43.3199997      -4.82404630E-07
   43.4399986       8.62630031E-07
   43.5600014       2.13090107E-06
   43.6800003       3.28663396E-06
   43.7999992       4.29921784E-06
   43.9199982       5.14401745E-06
   44.0400009       5.80288815E-06
   44.1599998       6.26442443E-06
   44.2799988       6.52394920E-06
   44.4000015       6.58328554E-06
   44.5200005       6.45034288E-06
   44.6399994       6.13855900E-06
   44.7599983       5.66622657E-06
   44.8800011       5.05573871E-06
   45.0000000       4.33276000E-06
   45.1199989       3.52535449E-06
   45.2400017       2.66306256E-06
   45.3600006       1.77594961E-06
   45.4799995       8.93627089E-07
   45.5999985       4.42696440E-08
   45.7200012      -7.46349144E-07
   45.8400002      -1.45576848E-06
   45.9599991      -2.06565505E-06
   46.0800018      -2.56247222E-06
   46.2000008      -2.93795392E-06
   46.3199997      -3.18933735E-06
   46.4399986      -3.31931778E-06
   46.5600014      -3.33570983E-06
   46.6800003      -3.25081737E-06
   46.7999992      -3.08053723E-06
   46.9199982      -2.84325574E-06
   47.0400009      -2.55860505E-06
   47.1599998      -2.24617497E-06
   47.2799988      -1.92427569E-06
   47.4000015      -1.60884770E-06
   47.5200005      -1.31260356E-06
   47.6399994      -1.04446895E-06
   47.7599983      -8.09356834E-07
   47.8800011      -6.08284552E-07
   48.0000000      -4.38810929E-07
   48.1199989      -2.95738914E-07
   48.2400017      -1.72011255E-07
   48.3600006      -5.97083059E-08
   48.4799995       4.89476051E-08
   48.5999985       1.60673480E-07
   48.7200012       2.80374024E-07
   48.8400002       4.10618867E-07
   48.9599991       5.51386790E-07
   49.0800018       7.00089572E-07
   49.2000008       8.51859511E-07
   49.3199997       1.00006298E-06
   49.4399986       1.13698093E-06
   49.5600014       1.25458314E-06
   49.6800003       1.34531967E-06
   49.7999992       1.40284794E-06
   49.9199982       1.42263002E-06
   50.0400009       1.40234295E-06
   50.1599998       1.34206823E-06
   50.2799988       1.24425048E-06
   50.4000015       1.11343741E-06
   50.5200005       9.55834935E-07
   50.6399994       7.78733408E-07
   50.7599983       5.89867852E-07
   50.8800011       3.96783975E-07
   51.0000000       2.06276383E-07
   51.1199989       2.39562699E-08
   51.2400017      -1.46012539E-07
   51.3600006      -3.00990735E-07
   51.4799995      -4.39758168E-07
   51.5999985      -5.62252808E-07
   51.7200012      -6.69198471E-07
   51.8400002      -7.61678052E-07
   51.9599991      -8.40714335E-07
   52.0800018      -9.06915943E-07
   52.2000008      -9.60236207E-07
   52.3199997      -9.99876534E-07
   52.4399986      -1.02434421E-06
   52.5600014      -1.03165144E-06
   52.6800003      -1.01962564E-06
   52.7999992      -9.86282771E-07
   52.9199982      -9.30206284E-07
   53.0400009      -8.50873732E-07
   53.1599998      -7.48881746E-07
   53.2799988      -6.26031522E-07
   53.4000015      -4.85260671E-07
   53.5200005      -3.30427667E-07
   53.6399994      -1.65980197E-07
   53.7599983       3.44493212E-09
   53.8800011       1.73429754E-07
   54.0000000       3.40128707E-07
   54.1199989       5.00513408E-07
   54.2400017       6.52469737E-07
   54.3600006       7.94733467E-07
   54.4799995       9.26676080E-07
   54.5999985       1.04797800E-06
   54.7200012       1.15824935E-06
   54.8400002       1.25666486E-06
   54.9599991       1.34168477E-06
   55.0800018       1.41091664E-06
   55.2000008       1.46115531E-06
   55.3199997       1.48860374E-06
   55.4399986       1.48925233E-06
   55.5600014       1.45935996E-06
   55.6800003       1.39596443E-06
   55.7999992       1.29733940E-06
   55.9199982       1.16332296E-06
   56.0400009       9.95459345E-07
   56.1599998       7.96928305E-07
   56.2799988       5.72270210E-07
   56.4000015       3.26950783E-07
   56.5200005       6.68404709E-08
   56.6399994      -2.02300953E-07
   56.7599983      -4.75239119E-07
   56.8800011      -7.47498916E-07
   57.0000000      -1.01536523E-06
   57.1199989      -1.27563908E-06
   57.2400017      -1.52518373E-06
   57.3600006      -1.76033564E-06
   57.4799995      -1.97629652E-06
   57.5999985      -2.16663034E-06
   57.7200012      -2.32299953E-06
   57.8400002      -2.43524642E-06
   57.9599991      -2.49188156E-06
   58.0800018      -2.48099059E-06
   58.2000008      -2.39149972E-06
   58.3199997      -2.21468099E-06
   58.4399986      -1.94572272E-06
   58.5600014      -1.58516013E-06
   58.6800003      -1.13994849E-06
   58.7999992      -6.23987205E-07
   58.9199982      -5.79494781E-08
   59.0400009       5.31650699E-07
   59.1599998       1.11413397E-06
   59.2799988       1.65695724E-06
   59.4000015       2.12843497E-06
   59.5200005       2.50060430E-06
   59.6399994       2.75192269E-06
   59.7599983       2.86947829E-06
   59.8800011       2.85043393E-06
   60.0000000       2.70250393E-06
   60.1199989       2.44335615E-06
   60.2400017       2.09896302E-06
   60.3600006       1.70104227E-06
   60.4799995       1.28384545E-06
   60.5999985       8.80627624E-07
   60.7200012       5.20189303E-07
   60.8400002       2.23876086E-07
   60.9599991       3.38073680E-09
   61.0800018      -1.40392615E-07
   61.2000008      -2.17259668E-07
   61.3199997      -2.46471842E-07
   61.4399986      -2.54344542E-07
   61.5600014      -2.71046162E-07
   61.6800003      -3.26889989E-07
   61.7999992      -4.48527970E-07
   61.9199982      -6.55456006E-07
   62.0400009      -9.57207135E-07
   62.1599998      -1.35153743E-06
   62.2799988      -1.82380450E-06
   62.4000015      -2.34761410E-06
   62.5200005      -2.88668616E-06
   62.6399994      -3.39776398E-06
   62.7599983      -3.83429642E-06
   62.8800011      -4.15054137E-06
   63.0000000      -4.30572027E-06
   63.1199989      -4.26782617E-06
   63.2400017      -4.01675879E-06
   63.3600006      -3.54649796E-06
   63.4799995      -2.86613681E-06
   63.5999985      -1.99969350E-06
   63.7200012      -9.84730491E-07
   63.8400002       1.30093284E-07
   63.9599991       1.28831584E-06
   64.0800018       2.42953593E-06
   64.1999969       3.49352695E-06
   64.3199997       4.42427609E-06
   64.4400024       5.17363878E-06
   64.5599976       5.70434759E-06
   64.6800003       5.99216037E-06
   64.8000031       6.02704222E-06
   64.9199982       5.81331233E-06
   65.0400009       5.36881271E-06
   65.1600037       4.72319880E-06
   65.2799988       3.91552794E-06
   65.4000015       2.99136400E-06
   65.5199966       1.99963097E-06
   65.6399994       9.89466685E-07
   65.7600021       7.29930116E-09
   65.8799973      -9.05662091E-07
   66.0000000      -1.71537374E-06
   66.1200027      -2.39625206E-06
   66.2399979      -2.93178732E-06
   66.3600006      -3.31450110E-06
   66.4800034      -3.54532335E-06
   66.5999985      -3.63250092E-06
   66.7200012      -3.59017508E-06
   66.8399963      -3.43677402E-06
   66.9599991      -3.19335982E-06
   67.0800018      -2.88205183E-06
   67.1999969      -2.52462905E-06
   67.3199997      -2.14137162E-06
   67.4400024      -1.75017965E-06
   67.5599976      -1.36597646E-06
   67.6800003      -1.00037391E-06
   67.8000031      -6.61573040E-07
   67.9199982      -3.54454244E-07
   68.0400009      -8.08196958E-08
   68.1600037       1.60246955E-07
   68.2799988       3.71928252E-07
   68.4000015       5.59144155E-07
   68.5199966       7.27956319E-07
   68.6399994       8.84912367E-07
   68.7600021       1.03634477E-06
   68.8799973       1.18764433E-06
   69.0000000       1.34254662E-06
   69.1200027       1.50247990E-06
   69.2399979       1.66603638E-06
   69.3600006       1.82863414E-06
   69.4800034       1.98243538E-06
   69.5999985       2.11657152E-06
   69.7200012       2.21771097E-06
   69.8399963       2.27096416E-06
   69.9599991       2.26109637E-06
   70.0800018       2.17396996E-06
   70.1999969       1.99810802E-06
   70.3199997       1.72623845E-06
   70.4400024       1.35665948E-06
   70.5599976       8.94271409E-07
   70.6800003       3.51128051E-07
   70.8000031      -2.53597364E-07
   70.9199982      -8.94289599E-07
   71.0400009      -1.54020495E-06
   71.1600037      -2.15734894E-06
   71.2799988      -2.71077988E-06
   71.4000015      -3.16714909E-06
   71.5199966      -3.49725133E-06
   71.6399994      -3.67835423E-06
   71.7600021      -3.69608392E-06
   71.8799973      -3.54568328E-06
   72.0000000      -3.23252630E-06
   72.1200027      -2.77183699E-06
   72.2399979      -2.18764148E-06
   72.3600006      -1.51106246E-06
   72.4800034      -7.78119954E-07
   72.5999985      -2.72506355E-08
   72.7200012       7.03228295E-07