  -30.0000000       0.00000000    
  -29.8799992       0.00000000    
  -29.7600002       0.00000000    
  -29.6399994       0.00000000    
  -29.5200005       0.00000000    
  -29.3999996      -5.14305756E-24
  -29.2800007      -1.03110337E-22
  -29.1599998      -7.85760341E-22
  -29.0400009      -3.60523802E-21
  -28.9200001      -1.16772069E-20
  -28.7999992      -2.85983318E-20
  -28.6800003      -5.40407983E-20
  -28.5599995      -7.61474748E-20
  -28.4400005      -6.54763538E-20
  -28.3199997       1.94302852E-20
  -28.2000008       2.03947222E-19
  -28.0799999       4.45791569E-19
  -27.9599991       5.82518527E-19
  -27.8400002       3.31083538E-19
  -27.7199993      -5.90319254E-19
  -27.6000004      -2.17617777E-18
  -27.4799995      -3.74577739E-18
  -27.3600006      -3.69522921E-18
  -27.2399998       1.89407662E-19
  -27.1200008       9.42915174E-18
  -27.0000000       2.25195422E-17
  -26.8799992       3.24345327E-17
  -26.7600002       2.60243908E-17
  -26.6399994      -1.19255183E-17
  -26.5200005      -8.81617038E-17
  -26.3999996      -1.85703133E-16
  -26.2800007      -2.51392126E-16
  -26.1599998      -1.99149781E-16
  -26.0400009       5.80466385E-17
  -25.9200001       5.44434927E-16
  -25.7999992       1.14414744E-15
  -25.6800003       1.55421430E-15
  -25.5599995       1.32679495E-15
  -25.4400005       4.46281047E-17
  -25.3199997      -2.38289702E-15
  -25.2000008      -5.40493926E-15
  -25.0799999      -7.68237114E-15
  -24.9599991      -7.31763367E-15
  -24.8400002      -2.57556800E-15
  -24.7199993       7.01339596E-15
  -24.6000004       1.95671268E-14
  -24.4799995       3.04059214E-14
  -24.3600006       3.28607685E-14
  -24.2399998       2.05922366E-14
  -24.1200008      -9.00209337E-15
  -24.0000000      -5.14958322E-14
  -23.8799992      -9.39768486E-14
  -23.7600002      -1.17005784E-13
  -23.6399994      -1.00575771E-13
  -23.5200005      -3.29663156E-14
  -23.3999996       8.04375555E-14
  -23.2800007       2.12403107E-13
  -23.1599998       3.16848219E-13
  -23.0400009       3.41048343E-13
  -22.9200001       2.44933658E-13
  -22.7999992       2.15849575E-14
  -22.6800003      -2.89283056E-13
  -22.5599995      -6.02481769E-13
  -22.4400005      -8.06771425E-13
  -22.3199997      -7.99565112E-13
  -22.2000008      -5.26946108E-13
  -22.0799999      -1.45501287E-14
  -21.9599991       6.24633537E-13
  -21.8400002       1.21311988E-12
  -21.7199993       1.55927484E-12
  -21.6000004       1.52052492E-12
  -21.4799995       1.05736427E-12
  -21.3600006       2.56567879E-13
  -21.2399998      -6.88442684E-13
  -21.1200008      -1.53620703E-12
  -21.0000000      -2.07460243E-12
  -20.8799992      -2.18727900E-12
  -20.7600002      -1.88205332E-12
  -20.6399994      -1.26938748E-12
  -20.5200005      -5.01474459E-13
  -20.3999996       2.97877256E-13
  -20.2800007       1.07560879E-12
  -20.1599998       1.83879171E-12
  -20.0400009       2.59295515E-12
  -19.9200001       3.26226025E-12
  -19.7999992       3.64309754E-12
  -19.6800003       3.43612703E-12
  -19.5599995       2.36776202E-12
  -19.4400005       3.62649581E-13
  -19.3199997      -2.31289120E-12
  -19.2000008      -5.02578318E-12
  -19.0799999      -6.92255584E-12
  -18.9599991      -7.22646032E-12
  -18.8400002      -5.58266541E-12
  -18.7199993      -2.29915262E-12
  -18.6000004       1.65384676E-12
  -18.4799995       4.93644969E-12
  -18.3600006       6.34486127E-12
  -18.2399998       5.33503276E-12
  -18.1200008       2.32582616E-12
  -18.0000000      -1.39195849E-12
  -17.8799992      -4.15467834E-12
  -17.7600002      -4.65460049E-12
  -17.6399994      -2.58344453E-12
  -17.5200005       1.12917098E-12
  -17.3999996       4.65354057E-12
  -17.2800007       6.09213591E-12
  -17.1599998       4.47463854E-12
  -17.0400009       4.57693833E-13
  -16.9200001      -3.65512308E-12
  -16.7999992      -4.69449523E-12
  -16.6800003       2.19255749E-14
  -16.5599995       1.12795433E-11
  -16.4400005       2.70949409E-11
  -16.3199997       4.28018281E-11
  -16.2000008       5.21458467E-11
  -16.0799999       4.90356401E-11
  -15.9600000       2.93410227E-11
  -15.8400002      -7.86068433E-12
  -15.7200003      -5.99183481E-11
  -15.6000004      -1.21050850E-10
  -15.4799995      -1.83206311E-10
  -15.3599997      -2.36857367E-10
  -15.2399998      -2.71452777E-10
  -15.1199999      -2.75619777E-10
  -15.0000000      -2.37541070E-10
  -14.8800001      -1.45999449E-10
  -14.7600002       7.70288607E-12
  -14.6400003       2.27288049E-10
  -14.5200005       5.09387754E-10
  -14.3999996       8.42871217E-10
  -14.2799997       1.21041288E-09
  -14.1599998       1.59229385E-09
  -14.0400000       1.97141903E-09
  -13.9200001       2.33775088E-09
  -13.8000002       2.69023692E-09
  -13.6800003       3.03501424E-09
  -13.5600004       3.38005379E-09
  -13.4399996       3.72795039E-09
  -13.3199997       4.06964329E-09
  -13.1999998       4.38194592E-09
  -13.0799999       4.63069938E-09
  -12.9600000       4.77941642E-09
  -12.8400002       4.80114926E-09
  -12.7200003       4.68977746E-09
  -12.6000004       4.46661241E-09
  -12.4799995       4.17937240E-09
  -12.3599997       3.89290156E-09
  -12.2399998       3.67369068E-09
  -12.1199999       3.57247720E-09
  -12.0000000       3.61008423E-09
  -11.8800001       3.77096177E-09
  -11.7600002       4.00671007E-09
  -11.6400003       4.24890167E-09
  -11.5200005       4.42769021E-09
  -11.3999996       4.49087478E-09
  -11.2799997       4.41786030E-09
  -11.1599998       4.22441726E-09
  -11.0400000       3.95686239E-09
  -10.9200001       3.67745878E-09
  -10.8000002       3.44548545E-09
  -10.6800003       3.29975691E-09
  -10.5600004       3.24790372E-09
  -10.4399996       3.26563709E-09
  -10.3199997       3.30609295E-09
  -10.1999998       3.31623506E-09
  -10.0799999       3.25514060E-09
  -9.96000004       3.10855119E-09
  -9.84000015       2.89540503E-09
  -9.72000027       2.66473199E-09
  -9.60000038       2.48431808E-09
  -9.47999954       2.42488696E-09
  -9.35999966       2.54451971E-09
  -9.23999977       2.87734969E-09
  -9.11999989       3.42876683E-09
  -9.00000000       4.17712354E-09
  -8.88000011       5.08018383E-09
  -8.76000023       6.08376816E-09
  -8.64000034       7.13029724E-09
  -8.52000046       8.16581647E-09
  -8.39999962       9.14502607E-09
  -8.27999973       1.00344222E-08
  -8.15999985       1.08137259E-08
  -8.03999996       1.14755530E-08
  -7.92000008       1.20231523E-08
  -7.80000019       1.24662494E-08
  -7.67999983       1.28156028E-08
  -7.55999994       1.30775035E-08
  -7.44000006       1.32497817E-08
  -7.32000017       1.33205935E-08
  -7.19999981       1.32704487E-08
  -7.07999992       1.30768205E-08
  -6.96000004       1.27198261E-08
  -6.84000015       1.21871659E-08
  -6.71999979       1.14768230E-08
  -6.59999990       1.05969162E-08
  -6.48000002       9.56288648E-09
  -6.36000013       8.39289260E-09
  -6.23999977       7.10251236E-09
  -6.11999989       5.69967051E-09
  -6.00000000       4.18058210E-09
  -5.88000011       2.52723020E-09
  -5.76000023       7.06791625E-10
  -5.63999987      -1.32663014E-09
  -5.51999998      -3.62798591E-09
  -5.40000010      -6.25544372E-09
  -5.28000021      -9.26374621E-09
  -5.15999985      -1.26981163E-08
  -5.03999996      -1.65902190E-08
  -4.92000008      -2.09572892E-08
  -4.80000019      -2.58048161E-08
  -4.67999983      -3.11326041E-08
  -4.55999994      -3.69431703E-08
  -4.44000006      -4.32510809E-08
  -4.32000017      -5.00914084E-08
  -4.19999981      -5.75252344E-08
  -4.07999992      -6.56405419E-08
  -3.96000004      -7.45471880E-08
  -3.83999991      -8.43660857E-08
  -3.72000003      -9.52146095E-08
  -3.59999990      -1.07191667E-07
  -3.48000002      -1.20367233E-07
  -3.35999990      -1.34780180E-07
  -3.24000001      -1.50446525E-07
  -3.11999989      -1.67376314E-07
  -3.00000000      -1.85595141E-07
  -2.88000011      -2.05163161E-07
  -2.75999999      -2.26186259E-07
  -2.64000010      -2.48815667E-07
  -2.51999998      -2.73236452E-07
  -2.40000010      -2.99648860E-07
  -2.27999997      -3.28248149E-07
  -2.16000009      -3.59208286E-07
  -2.03999996      -3.92672433E-07
  -1.91999996      -4.28751264E-07
  -1.79999995      -4.67527485E-07
  -1.67999995      -5.09064876E-07
  -1.55999994      -5.53420023E-07
  -1.44000006      -6.00657131E-07
  -1.32000005      -6.50863456E-07
  -1.20000005      -7.04164393E-07
  -1.08000004      -7.60734792E-07
 -0.959999979      -8.20802597E-07
 -0.839999974      -8.84642191E-07
 -0.720000029      -9.52557798E-07
 -0.600000024      -1.02486126E-06
 -0.479999989      -1.10185101E-06
 -0.360000014      -1.18379990E-06
 -0.239999995      -1.27095620E-06
 -0.119999997      -1.36355834E-06
  -1.11022302E-15  -1.46185710E-06
  0.119999997      -1.56613760E-06
  0.239999995      -1.67673204E-06
  0.360000014      -1.79401911E-06
  0.479999989      -1.91840923E-06
  0.600000024      -2.05032188E-06
  0.720000029      -2.19016442E-06
  0.839999974      -2.33831724E-06
  0.959999979      -2.49513369E-06
   1.08000004      -2.66095162E-06
   1.20000005      -2.83611303E-06
   1.32000005      -3.02098510E-06
   1.44000006      -3.21597395E-06
   1.55999994      -3.42152907E-06
   1.67999995      -3.63813820E-06
   1.79999995      -3.86631382E-06
   1.91999996      -4.10658186E-06
   2.03999996      -4.35947004E-06
   2.16000009      -4.62551134E-06
   2.27999997      -4.90524508E-06
   2.40000010      -5.19923424E-06
   2.51999998      -5.50807272E-06
   2.64000010      -5.83239125E-06
   2.75999999      -6.17285605E-06
   2.88000011      -6.53016059E-06
   3.00000000      -6.90501611E-06
   3.11999989      -7.29814474E-06
   3.24000001      -7.71027680E-06
   3.35999990      -8.14215582E-06
   3.48000002      -8.59454849E-06
   3.59999990      -9.06824880E-06
   3.72000003      -9.56407712E-06
   3.83999991      -1.00828756E-05
   3.96000004      -1.06254965E-05
   4.07999992      -1.11928066E-05
   4.19999981      -1.17856935E-05
   4.32000017      -1.24050766E-05
   4.44000006      -1.30519347E-05
   4.55999994      -1.37273082E-05
   4.67999983      -1.44323094E-05
   4.80000019      -1.51680970E-05
   4.92000008      -1.59358424E-05
   5.03999996      -1.67367052E-05
   5.15999985      -1.75717978E-05
   5.28000021      -1.84421897E-05
   5.40000010      -1.93489286E-05
   5.51999998      -2.02930696E-05
   5.63999987      -2.12757332E-05
   5.76000023      -2.22981143E-05
   5.88000011      -2.33615210E-05
   6.00000000      -2.44673629E-05
   6.11999989      -2.56171206E-05
   6.23999977      -2.68123313E-05
   6.36000013      -2.80545610E-05
   6.48000002      -2.93453795E-05
   6.59999990      -3.06863658E-05
   6.71999979      -3.20790859E-05
   6.84000015      -3.35251098E-05
   6.96000004      -3.50260052E-05
   7.07999992      -3.65833366E-05
   7.19999981      -3.81986756E-05
   7.32000017      -3.98736047E-05
   7.44000006      -4.16097355E-05
   7.55999994      -4.34087269E-05
   7.67999983      -4.52722961E-05
   7.80000019      -4.72022439E-05
   7.92000008      -4.92004219E-05
   8.03999996      -5.12687657E-05
   8.15999985      -5.34092615E-05
   8.27999973      -5.56239393E-05
   8.39999962      -5.79148546E-05
   8.52000046      -6.02840992E-05
   8.64000034      -6.27338013E-05
   8.76000023      -6.52661256E-05
   8.88000011      -6.78832585E-05
   9.00000000      -7.05874118E-05
   9.11999989      -7.33807465E-05
   9.23999977      -7.62654454E-05
   9.35999966      -7.92436404E-05
   9.47999954      -8.23174123E-05
   9.60000038      -8.54888858E-05
   9.72000027      -8.87601636E-05
   9.84000015      -9.21334577E-05
   9.96000004      -9.56111180E-05
   10.0799999      -9.91956113E-05
   10.1999998      -1.02889528E-04
   10.3199997      -1.06695552E-04
   10.4399996      -1.10616398E-04
   10.5600004      -1.14654758E-04
   10.6800003      -1.18813252E-04
   10.8000002      -1.23094389E-04
   10.9200001      -1.27500607E-04
   11.0400000      -1.32034285E-04
   11.1599998      -1.36697796E-04
   11.2799997      -1.41493540E-04
   11.3999996      -1.46423932E-04
   11.5200005      -1.51491462E-04
   11.6400003      -1.56698603E-04
   11.7600002      -1.62047902E-04
   11.8800001      -1.67541933E-04
   12.0000000      -1.73183318E-04
   12.1199999      -1.78974689E-04
   12.2399998      -1.84918710E-04
   12.3599997      -1.91017971E-04
   12.4799995      -1.97275003E-04
   12.6000004      -2.03692238E-04
   12.7200003      -2.10271974E-04
   12.8400002      -2.17016423E-04
   12.9600000      -2.23927738E-04
   13.0799999      -2.31008031E-04
   13.1999998      -2.38259439E-04
   13.3199997      -2.45684059E-04
   13.4399996      -2.53284001E-04
   13.5600004      -2.61061301E-04
   13.6800003      -2.69017939E-04
   13.8000002      -2.77155719E-04
   13.9200001      -2.85476272E-04
   14.0400000      -2.93981167E-04
   14.1599998      -3.02671804E-04
   14.2799997      -3.11549666E-04
   14.3999996      -3.20616004E-04
   14.5200005      -3.29872040E-04
   14.6400003      -3.39318969E-04
   14.7600002      -3.48957663E-04
   14.8800001      -3.58788966E-04
   15.0000000      -3.68813460E-04
   15.1199999      -3.79031728E-04
   15.2399998      -3.89443972E-04
   15.3599997      -4.00050252E-04
   15.4799995      -4.10850480E-04
   15.6000004      -4.21844248E-04
   15.7200003      -4.33031091E-04
   15.8400002      -4.44410194E-04
   15.9600000      -4.55980655E-04
   16.0799999      -4.67741222E-04
   16.2000008      -4.79690672E-04
   16.3199997      -4.91827377E-04
   16.4400005      -5.04149706E-04
   16.5599995      -5.16655506E-04
   16.6800003      -5.29342564E-04
   16.7999992      -5.42208261E-04
   16.9200001      -5.55249746E-04
   17.0400009      -5.68463933E-04
   17.1599998      -5.81847329E-04
   17.2800007      -5.95396268E-04
   17.3999996      -6.09106733E-04
   17.5200005      -6.22974418E-04
   17.6399994      -6.36994722E-04
   17.7600002      -6.51162874E-04
   17.8799992      -6.65473402E-04
   18.0000000      -6.79920777E-04
   18.1200008      -6.94498944E-04
   18.2399998      -7.09201733E-04
   18.3600006      -7.24022626E-04
   18.4799995      -7.38954695E-04
   18.6000004      -7.53990840E-04
   18.7199993      -7.69123784E-04
   18.8400002      -7.84345728E-04
   18.9599991      -7.99648522E-04
   19.0799999      -8.15023785E-04
   19.2000008      -8.30462552E-04
   19.3199997      -8.45955685E-04
   19.4400005      -8.61493521E-04
   19.5599995      -8.77066283E-04
   19.6800003      -8.92663607E-04
   19.7999992      -9.08275018E-04
   19.9200001      -9.23889747E-04
   20.0400009      -9.39496735E-04
   20.1599998      -9.55084630E-04
   20.2800007      -9.70641850E-04
   20.3999996      -9.86156403E-04
   20.5200005      -1.00161636E-03
   20.6399994      -1.01700891E-03
   20.7600002      -1.03232183E-03
   20.8799992      -1.04754197E-03
   21.0000000      -1.06265594E-03
   21.1200008      -1.07765058E-03
   21.2399998      -1.09251228E-03
   21.3600006      -1.10722694E-03
   21.4799995      -1.12178060E-03
   21.6000004      -1.13615929E-03
   21.7199993      -1.15034857E-03
   21.8400002      -1.16433401E-03
   21.9599991      -1.17810140E-03
   22.0799999      -1.19163608E-03
   22.2000008      -1.20492349E-03
   22.3199997      -1.21794897E-03
   22.4400005      -1.23069750E-03
   22.5599995      -1.24315440E-03
   22.6800003      -1.25530513E-03
   22.7999992      -1.26713468E-03
   22.9200001      -1.27862871E-03
   23.0400009      -1.28977268E-03
   23.1599998      -1.30055193E-03
   23.2800007      -1.31095224E-03
   23.3999996      -1.32095919E-03
   23.5200005      -1.33055844E-03
   23.6399994      -1.33973628E-03
   23.7600002      -1.34847884E-03
   23.8799992      -1.35677285E-03
   24.0000000      -1.36460504E-03
   24.1200008      -1.37196283E-03
   24.2399998      -1.37883378E-03
   24.3600006      -1.38520554E-03
   24.4799995      -1.39106624E-03
   24.6000004      -1.39640411E-03
   24.7199993      -1.40120811E-03
   24.8400002      -1.40546763E-03
   24.9599991      -1.40917231E-03
   25.0799999      -1.41231238E-03
   25.2000008      -1.41487899E-03
   25.3199997      -1.41686341E-03
   25.4400005      -1.41825760E-03
   25.5599995      -1.41905400E-03
   25.6800003      -1.41924550E-03
   25.7999992      -1.41882547E-03
   25.9200001      -1.41778798E-03
   26.0400009      -1.41612743E-03
   26.1599998      -1.41383905E-03
   26.2800007      -1.41091878E-03
   26.3999996      -1.40736345E-03
   26.5200005      -1.40317040E-03
   26.6399994      -1.39833812E-03
   26.7600002      -1.39286544E-03
   26.8799992      -1.38675235E-03
   27.0000000      -1.37999933E-03
   27.1200008      -1.37260708E-03
   27.2399998      -1.36457721E-03
   27.3600006      -1.35591219E-03
   27.4799995      -1.34661514E-03
   27.6000004      -1.33668981E-03
   27.7199993      -1.32614060E-03
   27.8400002      -1.31497323E-03
   27.9599991      -1.30319363E-03
   28.0799999      -1.29080890E-03
   28.2000008      -1.27782684E-03
   28.3199997      -1.26425596E-03
   28.4400005      -1.25010568E-03
   28.5599995      -1.23538577E-03
   28.6800003      -1.22010696E-03
   28.7999992      -1.20428100E-03
   28.9200001      -1.18791987E-03
   29.0400009      -1.17103627E-03
   29.1599998      -1.15364348E-03
   29.2800007      -1.13575545E-03
   29.3999996      -1.11738674E-03
   29.5200005      -1.09855237E-03
   29.6399994      -1.07926817E-03
   29.7600002      -1.05955044E-03
   29.8799992      -1.03941606E-03
   30.0000000      -1.01888285E-03
   30.1200008      -9.97968600E-04
   30.2399998      -9.76692187E-04
   30.3600006      -9.55072290E-04
   30.4799995      -9.33128467E-04
   30.6000004      -9.10880393E-04
   30.7199993      -8.88348033E-04
   30.8400002      -8.65551934E-04
   30.9599991      -8.42512760E-04
   31.0799999      -8.19251640E-04
   31.2000008      -7.95789994E-04
   31.3199997      -7.72149418E-04
   31.4400005      -7.48351624E-04
   31.5599995      -7.24418380E-04
   31.6800003      -7.00371398E-04
   31.7999992      -6.76232739E-04
   31.9200001      -6.52024231E-04
   32.0400009      -6.27767877E-04
   32.1599998      -6.03485736E-04
   32.2799988      -5.79199928E-04
   32.4000015      -5.54932398E-04
   32.5200005      -5.30704972E-04
   32.6399994      -5.06539247E-04
   32.7599983      -4.82456642E-04
   32.8800011      -4.58478491E-04
   33.0000000      -4.34625748E-04
   33.1199989      -4.10919369E-04
   33.2400017      -3.87379900E-04
   33.3600006      -3.64027539E-04
   33.4799995      -3.40882078E-04
   33.5999985      -3.17962811E-04
   33.7200012      -2.95288453E-04
   33.8400002      -2.72877282E-04
   33.9599991      -2.50747136E-04
   34.0800018      -2.28915465E-04
   34.2000008      -2.07399338E-04
   34.3199997      -1.86215286E-04
   34.4399986      -1.65379388E-04
   34.5600014      -1.44906982E-04
   34.6800003      -1.24812708E-04
   34.7999992      -1.05110528E-04
   34.9199982      -8.58137282E-05
   35.0400009      -6.69349902E-05
   35.1599998      -4.84863594E-05
   35.2799988      -3.04793084E-05
   35.4000015      -1.29246455E-05
   35.5200005       4.16754483E-06
   35.6399994       2.07879639E-05
   35.7599983       3.69280970E-05
   35.8800011       5.25802061E-05
   36.0000000       6.77372591E-05
   36.1199989       8.23929149E-05
   36.2400017       9.65414947E-05
   36.3600006       1.10178022E-04
   36.4799995       1.23298290E-04
   36.5999985       1.35898896E-04
   36.7200012       1.47977233E-04
   36.8400002       1.59531453E-04
   36.9599991       1.70560466E-04
   37.0800018       1.81063762E-04
   37.2000008       1.91041516E-04
   37.3199997       2.00494484E-04
   37.4399986       2.09424063E-04
   37.5600014       2.17832363E-04
   37.6800003       2.25722237E-04
   37.7999992       2.33097220E-04
   37.9199982       2.39961606E-04
   38.0400009       2.46320298E-04
   38.1599998       2.52178783E-04
   38.2799988       2.57543143E-04
   38.4000015       2.62419810E-04
   38.5200005       2.66815856E-04
   38.6399994       2.70738732E-04
   38.7599983       2.74196529E-04
   38.8800011       2.77197716E-04
   39.0000000       2.79751344E-04
   39.1199989       2.81866873E-04
   39.2400017       2.83554196E-04
   39.3600006       2.84823531E-04
   39.4799995       2.85685499E-04
   39.5999985       2.86150898E-04
   39.7200012       2.86231021E-04
   39.8400002       2.85937276E-04
   39.9599991       2.85281567E-04
   40.0800018       2.84275971E-04
   40.2000008       2.82932888E-04
   40.3199997       2.81265005E-04
   40.4399986       2.79284955E-04
   40.5600014       2.77005631E-04
   40.6800003       2.74439837E-04
   40.7999992       2.71600409E-04
   40.9199982       2.68500269E-04
   41.0400009       2.65152485E-04
   41.1599998       2.61570065E-04
   41.2799988       2.57766224E-04
   41.4000015       2.53754057E-04
   41.5200005       2.49546662E-04
   41.6399994       2.45156989E-04
   41.7599983       2.40597918E-04
   41.8800011       2.35882297E-04
   42.0000000       2.31022888E-04
   42.1199989       2.26032440E-04
   42.2400017       2.20923524E-04
   42.3600006       2.15708656E-04
   42.4799995       2.10399972E-04
   42.5999985       2.05009317E-04
   42.7200012       1.99548216E-04
   42.8400002       1.94027802E-04
   42.9599991       1.88459075E-04
   43.0800018       1.82852731E-04
   43.2000008       1.77219408E-04
   43.3199997       1.71569496E-04
   43.4399986       1.65913181E-04
   43.5600014       1.60260301E-04
   43.6800003       1.54620342E-04
   43.7999992       1.49002371E-04
   43.9199982       1.43415120E-04
   44.0400009       1.37866940E-04
   44.1599998       1.32365938E-04
   44.2799988       1.26919927E-04
   44.4000015       1.21536403E-04
   44.5200005       1.16222545E-04
   44.6399994       1.10985107E-04
   44.7599983       1.05830426E-04
   44.8800011       1.00764395E-04
   45.0000000       9.57925367E-05
   45.1199989       9.09200462E-05
   45.2400017       8.61517983E-05
   45.3600006       8.14924642E-05
   45.4799995       7.69464314E-05
   45.5999985       7.25178106E-05
   45.7200012       6.82103200E-05
   45.8400002       6.40273138E-05
   45.9599991       5.99716732E-05
   46.0800018       5.60458611E-05
   46.2000008       5.22519404E-05
   46.3199997       4.85916607E-05
   46.4399986       4.50665066E-05
   46.5600014       4.16777657E-05
   46.6800003       3.84265259E-05
   46.7999992       3.53136675E-05
   46.9199982       3.23398235E-05
   47.0400009       2.95053069E-05
   47.1599998       2.68101212E-05
   47.2799988       2.42539554E-05
   47.4000015       2.18362093E-05
   47.5200005       1.95560715E-05
   47.6399994       1.74125416E-05
   47.7599983       1.54044556E-05
   47.8800011       1.35304663E-05
   48.0000000       1.17890168E-05
   48.1199989       1.01783180E-05
   48.2400017       8.69634368E-06
   48.3600006       7.34087143E-06
   48.4799995       6.10953293E-06
   48.5999985       4.99987027E-06
   48.7200012       4.00937188E-06
   48.8400002       3.13547616E-06
   48.9599991       2.37554150E-06
   49.0800018       1.72680029E-06
   49.2000008       1.18632522E-06
   49.3199997       7.51018149E-07
   49.4399986       4.17631639E-07
   49.5600014       1.82814645E-07
   49.6800003       4.31648388E-08
   49.7999992      -4.73303441E-09
   49.9199982       3.57109187E-08
   50.0400009       1.61091094E-07
   50.1599998       3.67992925E-07
   50.2799988       6.52984795E-07
   50.4000015       1.01262037E-06
   50.5200005       1.44344858E-06
   50.6399994       1.94202448E-06
   50.7599983       2.50491530E-06
   50.8800011       3.12869884E-06
   51.0000000       3.80995493E-06
   51.1199989       4.54525843E-06
   51.2400017       5.33117918E-06
   51.3600006       6.16429043E-06
   51.4799995       7.04119248E-06
   51.5999985       7.95853521E-06
   51.7200012       8.91304262E-06
   51.8400002       9.90153603E-06
   51.9599991       1.09209413E-05
   52.0800018       1.19682873E-05
   52.2000008       1.30407025E-05
   52.3199997       1.41353976E-05
   52.4399986       1.52496386E-05
   52.5600014       1.63807308E-05
   52.6800003       1.75260011E-05
   52.7999992       1.86828038E-05
   52.9199982       1.98485541E-05
   53.0400009       2.10207563E-05
   53.1599998       2.21970458E-05
   53.2799988       2.33752107E-05
   53.4000015       2.45531701E-05
   53.5200005       2.57289412E-05
   53.6399994       2.69005868E-05
   53.7599983       2.80661807E-05
   53.8800011       2.92237964E-05
   54.0000000       3.03715497E-05
   54.1199989       3.15076541E-05
   54.2400017       3.26304762E-05
   54.3600006       3.37385463E-05
   54.4799995       3.48305548E-05
   54.5999985       3.59053229E-05
   54.7200012       3.69617192E-05
   54.8400002       3.79986523E-05
   54.9599991       3.90150744E-05
   55.0800018       4.00100107E-05
   55.2000008       4.09825952E-05
   55.3199997       4.19320713E-05
   55.4399986       4.28577732E-05
   55.5600014       4.37590497E-05
   55.6800003       4.46352169E-05
   55.7999992       4.54855399E-05
   55.9199982       4.63092692E-05
   56.0400009       4.71057429E-05
   56.1599998       4.78744696E-05
   56.2799988       4.86151948E-05
   56.4000015       4.93278858E-05
   56.5200005       5.00126516E-05
   56.6399994       5.06696524E-05
   56.7599983       5.12989936E-05
   56.8800011       5.19007044E-05
   57.0000000       5.24747447E-05
   57.1199989       5.30211000E-05
   57.2400017       5.35398394E-05
   57.3600006       5.40311412E-05
   57.4799995       5.44952709E-05
   57.5999985       5.49325050E-05
   57.7200012       5.53430873E-05
   57.8400002       5.57272069E-05
   57.9599991       5.60850312E-05
   58.0800018       5.64167858E-05
   58.2000008       5.67228126E-05
   58.3199997       5.70036136E-05
   58.4399986       5.72598074E-05
   58.5600014       5.74920705E-05
   58.6800003       5.77010542E-05
   58.7999992       5.78873187E-05
   58.9199982       5.80513552E-05
   59.0400009       5.81936147E-05
   59.1599998       5.83145884E-05
   59.2799988       5.84148256E-05
   59.4000015       5.84949339E-05
   59.5200005       5.85555426E-05
   59.6399994       5.85972375E-05
   59.7599983       5.86205206E-05
   59.8800011       5.86258284E-05
   60.0000000       5.86135793E-05
   60.1199989       5.85842427E-05
   60.2400017       5.85384041E-05
   60.3600006       5.84767586E-05
   60.4799995       5.84000773E-05
   60.5999985       5.83091314E-05
   60.7200012       5.82046232E-05
   60.8400002       5.80871674E-05
   60.9599991       5.79572770E-05
   61.0800018       5.78154213E-05
   61.2000008       5.76620769E-05
   61.3199997       5.74977566E-05
   61.4399986       5.73230063E-05
   61.5600014       5.71383862E-05
   61.6800003       5.69444273E-05
   61.7999992       5.67416355E-05
   61.9199982       5.65304545E-05
   62.0400009       5.63113317E-05
   62.1599998       5.60846966E-05
   62.2799988       5.58510001E-05
   62.4000015       5.56107261E-05
   62.5200005       5.53643476E-05
   62.6399994       5.51123449E-05
   62.7599983       5.48551725E-05
   62.8800011       5.45932671E-05
   63.0000000       5.43270435E-05
   63.1199989       5.40568981E-05
   63.2400017       5.37831984E-05
   63.3600006       5.35062609E-05
   63.4799995       5.32263657E-05
   63.5999985       5.29437457E-05
   63.7200012       5.26586227E-05
   63.8400002       5.23712260E-05
   63.9599991       5.20818394E-05
   64.0800018       5.17907829E-05
   64.1999969       5.14984022E-05
   64.3199997       5.12050392E-05
   64.4400024       5.09109741E-05
   64.5599976       5.06164215E-05
   64.6800003       5.03215415E-05
   64.8000031       5.00264432E-05
   64.9199982       4.97312394E-05
   65.0400009       4.94360793E-05
   65.1600037       4.91411338E-05
   65.2799988       4.88465703E-05
   65.4000015       4.85525416E-05
   65.5199966       4.82591495E-05
   65.6399994       4.79664632E-05
   65.7600021       4.76745554E-05
   65.8799973       4.73835171E-05
   66.0000000       4.70935047E-05
   66.1200027       4.68047183E-05
   66.2399979       4.65173725E-05
   66.3600006       4.62316457E-05
   66.4800034       4.59476323E-05
   66.5999985       4.56653106E-05
   66.7200012       4.53845787E-05
   66.8399963       4.51052983E-05
   66.9599991       4.48273495E-05
   67.0800018       4.45506994E-05
   67.1999969       4.42753953E-05
   67.3199997       4.40015756E-05
   67.4400024       4.37294075E-05
   67.5599976       4.34590402E-05
   67.6800003       4.31905864E-05
   67.8000031       4.29240899E-05
   67.9199982       4.26595361E-05
   68.0400009       4.23968741E-05
   68.1600037       4.21360382E-05
   68.2799988       4.18769741E-05
   68.4000015       4.16196526E-05
   68.5199966       4.13640446E-05
   68.6399994       4.11101319E-05
   68.7600021       4.08578926E-05
   68.8799973       4.06072904E-05
   69.0000000       4.03582708E-05
   69.1200027       4.01107791E-05
   69.2399979       3.98647571E-05
   69.3600006       3.96201722E-05
   69.4800034       3.93770060E-05
   69.5999985       3.91352733E-05
   69.7200012       3.88950029E-05
   69.8399963       3.86562242E-05
   69.9599991       3.84189516E-05
   70.0800018       3.81831669E-05
   70.1999969       3.79488265E-05
   70.3199997       3.77158576E-05
   70.4400024       3.74841838E-05
   70.5599976       3.72537397E-05
   70.6800003       3.70244925E-05
   70.8000031       3.67964349E-05
   70.9199982       3.65695741E-05
   71.0400009       3.63439103E-05
   71.1600037       3.61194252E-05
   71.2799988       3.58960824E-05
   71.4000015       3.56738165E-05
   71.5199966       3.54525619E-05
   71.6399994       3.52322677E-05
   71.7600021       3.50129230E-05
   71.8799973       3.47945497E-05
   72.0000000       3.45772096E-05
   72.1200027       3.43609681E-05
   72.2399979       3.41458726E-05
   72.3600006       3.39319486E-05
   72.4800034       3.37191632E-05
   72.5999985       3.35074474E-05
   72.7200012       3.32967065E-05