  -30.0000000       0.00000000    
  -29.8799992       0.00000000    
  -29.7600002       0.00000000    
  -29.6399994       0.00000000    
  -29.5200005       0.00000000    
  -29.3999996       0.00000000    
  -29.2800007      -1.24715563E-43
  -29.1599998      -1.00473100E-42
  -29.0400009      -4.05816035E-42
  -28.9200001      -7.46892081E-42
  -28.7999992       9.44755425E-42
  -28.6800003       1.15343679E-40
  -28.5599995       4.38145392E-40
  -28.4400005       1.10141499E-39
  -28.3199997       2.00039560E-39
  -28.2000008       2.36788332E-39
  -28.0799999       1.86236770E-40
  -27.9599991      -8.36410671E-39
  -27.8400002      -2.88725217E-38
  -27.7199993      -6.66884049E-38
  -27.6000004      -1.20095706E-37
  -27.4799995      -1.65039631E-37
  -27.3600006      -1.31115473E-37
  -27.2399998       1.19295318E-37
  -27.1200008       7.74921548E-37
  -27.0000000       1.96802482E-36
  -26.8799992       3.52947309E-36
  -26.7600002       4.63530986E-36
  -26.6399994       3.53047933E-36
  -26.5200005      -2.29423454E-36
  -26.3999996      -1.50134075E-35
  -26.2800007      -3.42361323E-35
  -26.1599998      -5.40873190E-35
  -26.0400009      -6.11002678E-35
  -25.9200001      -3.53492733E-35
  -25.7999992       4.27412702E-35
  -25.6800003       1.79180696E-34
  -25.5599995       3.49679195E-34
  -25.4400005       4.86883515E-34
  -25.3199997       4.82440055E-34
  -25.2000008       2.14055179E-34
  -25.0799999      -3.99186310E-34
  -24.9599991      -1.32303129E-33
  -24.8400002      -2.34140603E-33
  -24.7199993      -3.03468083E-33
  -24.6000004      -2.84140072E-33
  -24.4799995      -1.22527369E-33
  -24.3600006       2.06632603E-33
  -24.2399998       6.71419525E-33
  -24.1200008       1.16178162E-32
  -24.0000000       1.48974425E-32
  -23.8799992       1.42222077E-32
  -23.7600002       7.50360288E-33
  -23.6399994      -6.13540313E-33
  -23.5200005      -2.53615933E-32
  -23.3999996      -4.59820653E-32
  -23.2800007      -6.10678131E-32
  -23.1599998      -6.21726485E-32
  -23.0400009      -4.16984287E-32
  -22.9200001       3.95006767E-33
  -22.7999992       7.12205050E-32
  -22.6800003       1.47406815E-31
  -22.5599995       2.10960023E-31
  -22.4400005       2.34950640E-31
  -22.3199997       1.93759884E-31
  -22.2000008       7.20260125E-32
  -22.0799999      -1.26223008E-31
  -21.9599991      -3.71120188E-31
  -21.8400002      -6.06220304E-31
  -21.7199993      -7.55763968E-31
  -21.6000004      -7.40556692E-31
  -21.4799995      -5.00653059E-31
  -21.3600006      -2.03617133E-32
  -21.2399998       6.51129455E-31
  -21.1200008       1.39116070E-30
  -21.0000000       2.01367467E-30
  -20.8799992       2.30124272E-30
  -20.7600002       2.05687212E-30
  -20.6399994       1.16680801E-30
  -20.5200005      -3.40556018E-31
  -20.3999996      -2.25804979E-30
  -20.2800007      -4.20272558E-30
  -20.1599998      -5.66913052E-30
  -20.0400009      -6.13162605E-30
  -19.9200001      -5.17978595E-30
  -19.7999992      -2.65726705E-30
  -19.6800003       1.23338754E-30
  -19.5599995       5.89604381E-30
  -19.4400005       1.04000082E-29
  -19.3199997       1.36351281E-29
  -19.2000008       1.45402550E-29
  -19.0799999       1.23606530E-29
  -18.9599991       6.87803675E-30
  -18.8400002      -1.44141036E-30
  -18.7199993      -1.14213612E-29
  -18.6000004      -2.12899578E-29
  -18.4799995      -2.89287437E-29
  -18.3600006      -3.22295228E-29
  -18.2399998      -2.95169889E-29
  -18.1200008      -1.99809033E-29
  -18.0000000      -4.04619638E-30
  -17.8799992       1.64074260E-29
  -17.7600002       3.80740100E-29
  -17.6399994       5.65824134E-29
  -17.5200005       6.72225805E-29
  -17.3999996       6.59745539E-29
  -17.2800007       5.06550150E-29
  -17.1599998       2.18850100E-29
  -17.0400009      -1.64635563E-29
  -16.9200001      -5.76205860E-29
  -16.7999992      -9.31579296E-29
  -16.6800003      -1.14926956E-28
  -16.5599995      -1.17218536E-28
  -16.4400005      -9.84886930E-29
  -16.3199997      -6.20065002E-29
  -16.2000008      -1.50319976E-29
  -16.0799999       3.34190885E-29
  -15.9600000       7.56328157E-29
  -15.8400002       1.08032609E-28
  -15.7200003       1.32553356E-28
  -15.6000004       1.55517326E-28
  -15.4799995       1.83642319E-28
  -15.3599997       2.17890301E-28
  -15.2399998       2.47141903E-28
  -15.1199999       2.44770457E-28
  -15.0000000       1.71544831E-28
  -14.8800001      -1.26519258E-29
  -14.7600002      -3.28407600E-28
  -14.6400003      -7.51899710E-28
  -14.5200005      -1.19443171E-27
  -14.3999996      -1.49865449E-27
  -14.2799997      -1.46350848E-27
  -14.1599998      -9.04026027E-28
  -14.0400000       2.60052711E-28
  -13.9200001       1.90938832E-27
  -13.8000002       3.66216889E-27
  -13.6800003       4.88899127E-27
  -13.5600004       4.84241612E-27
  -13.4399996       2.90813650E-27
  -13.3199997      -1.06463867E-27
  -13.1999998      -6.45327009E-27
  -13.0799999      -1.17165327E-26
  -12.9600000      -1.45644585E-26
  -12.8400002      -1.25382438E-26
  -12.7200003      -3.97088429E-27
  -12.6000004       1.08774436E-26
  -12.4799995       2.88969179E-26
  -12.3599997       4.39200404E-26
  -12.2399998       4.76942376E-26
  -12.1199999       3.22556997E-26
  -12.0000000      -6.53766164E-27
  -11.8800001      -6.51596088E-26
  -11.7600002      -1.29673744E-25
  -11.6400003      -1.75813023E-25
  -11.5200005      -1.73361860E-25
  -11.3999996      -9.53711942E-26
  -11.2799997       6.89228019E-26
  -11.1599998       3.00687843E-25
  -11.0400000       5.42714116E-25
  -10.9200001       7.01281469E-25
  -10.8000002       6.63699938E-25
  -10.6800003       3.33059071E-25
  -10.5600004      -3.24227970E-25
  -10.4399996      -1.22988129E-24
  -10.3199997      -2.16273159E-24
  -10.1999998      -2.76684463E-24
  -10.0799999      -2.61681255E-24
  -9.96000004      -1.34576337E-24
  -9.84000015       1.17956902E-24
  -9.72000027       4.67878373E-24
  -9.60000038       8.33910700E-24
  -9.47999954       1.08362060E-23
  -9.35999966       1.05611294E-23
  -9.23999977       6.07728857E-24
  -9.11999989      -3.24243151E-24
  -9.00000000      -1.65417979E-23
  -8.88000011      -3.10024197E-23
  -8.76000023      -4.18401411E-23
  -8.64000034      -4.30269539E-23
  -8.52000046      -2.88522374E-23
  -8.39999962       3.81030467E-24
  -8.27999973       5.29880079E-23
  -8.15999985       1.09628644E-22
  -8.03999996       1.57142455E-22
  -7.92000008       1.73414624E-22
  -7.80000019       1.35837392E-22
  -7.67999983       2.91212263E-23
  -7.55999994      -1.45457507E-22
  -7.44000006      -3.61894194E-22
  -7.32000017      -5.65788560E-22
  -7.19999981      -6.78726734E-22
  -7.07999992      -6.13255167E-22
  -6.96000004      -2.98603719E-22
  -6.84000015       2.86299862E-22
  -6.71999979       1.08018661E-21
  -6.59999990       1.91849740E-21
  -6.48000002       2.53706088E-21
  -6.36000013       2.61136153E-21
  -6.23999977       1.83577147E-21
  -6.11999989       3.58695338E-23
  -6.00000000      -2.70737527E-21
  -5.88000011      -5.95699005E-21
  -5.76000023      -8.88769783E-21
  -5.63999987      -1.03657290E-20
  -5.51999998      -9.16887138E-21
  -5.40000010      -4.34266712E-21
  -5.28000021       4.35734634E-21
  -5.15999985       1.60389044E-20
  -5.03999996       2.84062288E-20
  -4.92000008       3.78144486E-20
  -4.80000019       3.97799170E-20
  -4.67999983       2.99998827E-20
  -4.55999994       5.79963187E-21
  -4.44000006      -3.22462888E-20
  -4.32000017      -7.89430804E-20
  -4.19999981      -1.23896288E-19
  -4.07999992      -1.52268855E-19
  -3.96000004      -1.47257536E-19
  -3.83999991      -9.43208332E-20
  -3.72000003       1.33264694E-20
  -3.59999990       1.69037227E-19
  -3.48000002       3.48498456E-19
  -3.35999990       5.08857576E-19
  -3.24000001       5.92975641E-19
  -3.11999989       5.39840712E-19
  -3.00000000       3.00817129E-19
  -2.88000011      -1.40440754E-19
  -2.75999999      -7.48588993E-19
  -2.64000010      -1.42354919E-18
  -2.51999998      -2.00034379E-18
  -2.40000010      -2.26745447E-18
  -2.27999997      -2.00648829E-18
  -2.16000009      -1.05109892E-18
  -2.03999996       6.43155622E-19
  -1.91999996       2.93288281E-18
  -1.79999995       5.44481877E-18
  -1.67999995       7.57935256E-18
  -1.55999994       8.57773060E-18
  -1.44000006       7.66115327E-18
  -1.32000005       4.23387599E-18
  -1.20000005      -1.87797296E-18
  -1.08000004      -1.02010949E-17
 -0.959999979      -1.94685725E-17
 -0.839999974      -2.76228214E-17
 -0.720000029      -3.20272620E-17
 -0.600000024      -2.99150596E-17
 -0.479999989      -1.90531757E-17
 -0.360000014       1.46353428E-18
 -0.239999995       3.04394789E-17
 -0.119999997       6.40303174E-17
  -1.11022302E-15   9.56445053E-17
  0.119999997       1.16492110E-16
  0.239999995       1.16893022E-16
  0.360000014       8.83125220E-17
  0.479999989       2.59033164E-17
  0.600000024      -6.88701380E-17
  0.720000029      -1.86124188E-16
  0.839999974      -3.06659067E-16
  0.959999979      -4.02931032E-16
   1.08000004      -4.42350304E-16
   1.20000005      -3.92984721E-16
   1.32000005      -2.31222710E-16
   1.44000006       4.96529556E-17
   1.55999994       4.31599365E-16
   1.67999995       8.66674477E-16
   1.79999995       1.27672916E-15
   1.91999996       1.55968962E-15
   2.03999996       1.60335047E-15
   2.16000009       1.30629220E-15
   2.27999997       6.03886158E-16
   2.40000010      -5.04397956E-16
   2.51999998      -1.93170162E-15
   2.64000010      -3.49075280E-15
   2.75999999      -4.89731030E-15
   2.88000011      -5.79498988E-15
   3.00000000      -5.80366647E-15
   3.11999989      -4.58966158E-15
   3.24000001      -1.95096569E-15
   3.35999990       2.09445731E-15
   3.48000002       7.23384009E-15
   3.59999990       1.28176888E-14
   3.72000003       1.78702996E-14
   3.83999991       2.11686815E-14
   3.96000004       2.13980224E-14
   4.07999992       1.73799658E-14
   4.19999981       8.35470016E-15
   4.32000017      -5.71884501E-15
   4.44000006      -2.38962733E-14
   4.55999994      -4.40776566E-14
   4.67999983      -6.30011315E-14
   4.80000019      -7.64599091E-14
   4.92000008      -7.97810033E-14
   5.03999996      -6.85680421E-14
   5.15999985      -3.96604644E-14
   5.28000021       7.79735333E-15
   5.40000010       7.13439046E-14
   5.51999998       1.44462513E-13
   5.63999987       2.16361570E-13
   5.76000023       2.72506789E-13
   5.88000011       2.96078917E-13
   6.00000000       2.70413927E-13
   6.11999989       1.82311658E-13
   6.23999977       2.58870616E-14
   6.36000013      -1.93587930E-13
   6.48000002      -4.56605728E-13
   6.59999990      -7.27987278E-13
   6.71999979      -9.57969598E-13
   6.84000015      -1.08652616E-12
   6.96000004      -1.05125392E-12
   7.07999992      -7.98590686E-13
   7.19999981      -2.97388687E-13
   7.32000017       4.46928790E-13
   7.44000006       1.38015218E-12
   7.55999994       2.39205162E-12
   7.67999983       3.31727744E-12
   7.80000019       3.94709309E-12
   7.92000008       4.05350623E-12
   8.03999996       3.42554587E-12
   8.15999985       1.91504950E-12
   8.27999973      -5.13368102E-13
   8.39999962      -3.73607048E-12
   8.52000046      -7.43773879E-12
   8.64000034      -1.11029094E-11
   8.76000023      -1.40413531E-11
   8.88000011      -1.54539055E-11
   9.00000000      -1.45401382E-11
   9.11999989      -1.06421399E-11
   9.23999977      -3.41043123E-12
   9.35999966       7.03034809E-12
   9.47999954       1.99452035E-11
   9.60000038       3.39151519E-11
   9.72000027       4.68584997E-11
   9.84000015       5.61729482E-11
   9.96000004       5.90113305E-11
   10.0799999       5.26852936E-11
   10.1999998       3.51677784E-11
   10.3199997       5.64065591E-12
   10.4399996      -3.49892199E-11
   10.5600004      -8.36988048E-11
   10.6800003      -1.35181782E-10
   10.8000002      -1.81996876E-10
   10.9200001      -2.15097717E-10
   11.0400000      -2.24769453E-10
   11.1599998      -2.01940270E-10
   11.2799997      -1.39771431E-10
   11.3999996      -3.53610058E-11
   11.5200005       1.08662704E-10
   11.6400003       2.82923102E-10
   11.7600002       4.70730732E-10
   11.8800001       6.48425647E-10
   12.0000000       7.86814225E-10
   12.1199999       8.53780435E-10
   12.2399998       8.18007995E-10
   12.3599997       6.53582355E-10
   12.4799995       3.45068807E-10
   12.6000004      -1.07499010E-10
   12.7200003      -6.84402868E-10
   12.8400002      -1.34354039E-09
   12.9600000      -2.01996220E-09
   13.0799999      -2.62824940E-09
   13.1999998      -3.06811954E-09
   13.3199997      -3.23333560E-09
   13.4399996      -3.02361314E-09
   13.5600004      -2.35879072E-09
   13.6800003      -1.19409205E-09
   13.8000002       4.65071925E-10
   13.9200001       2.55062171E-09
   14.0400000       4.92364549E-09
   14.1599998       7.37251948E-09
   14.2799997       9.61900870E-09
   14.3999996       1.13335483E-08
   14.5200005       1.21601724E-08
   14.6400003       1.17505916E-08
   14.7600002       9.80586101E-09
   14.8800001       6.12288797E-09
   15.0000000       6.41924458E-10
   15.1199999      -6.50981402E-09
   15.2399998      -1.49839270E-08
   15.3599997      -2.41918148E-08
   15.4799995      -3.33064314E-08
   15.6000004      -4.12894785E-08
   15.7200003      -4.69472141E-08
   15.8400002      -4.90158669E-08
   15.9600000      -4.62748808E-08
   16.0799999      -3.76831153E-08
   16.2000008      -2.25298002E-08
   16.3199997      -5.88686266E-10
   16.4400005       2.77387784E-08
   16.5599995       6.13075670E-08
   16.6800003       9.81576846E-08
   16.7999992       1.35503782E-07
   16.9200001       1.69800245E-07
   17.0400009       1.96892358E-07
   17.1599998       2.12258385E-07
   17.2800007       2.11340549E-07
   17.3999996       1.89954946E-07
   17.5200005       1.44762012E-07
   17.6399994       7.37706429E-08
   17.7600002      -2.31579520E-08
   17.8799992      -1.43845924E-07
   18.0000000      -2.83416654E-07
   18.1200008      -4.34037446E-07
   18.2399998      -5.84825727E-07
   18.3600006      -7.21951551E-07
   18.4799995      -8.28957866E-07
   18.6000004      -8.87308261E-07
   18.7199993      -8.77154548E-07
   18.8400002      -7.78303672E-07
   18.9599991      -5.71342753E-07
   19.0799999      -2.38871166E-07
   19.2000008       2.33228363E-07
   19.3199997       8.54553491E-07
   19.4400005       1.62906008E-06
   19.5599995       2.55413192E-06
   19.6800003       3.61991533E-06
   19.7999992       4.80897779E-06
   19.9200001       6.09633662E-06
   20.0400009       7.44988165E-06
   20.1599998       8.83119719E-06
   20.2800007       1.01967571E-05
   20.3999996       1.14994555E-05
   20.5200005       1.26904133E-05
   20.6399994       1.37209554E-05
   20.7600002       1.45447020E-05
   20.8799992       1.51196291E-05
   21.0000000       1.54100235E-05
   21.1200008       1.53882247E-05
   21.2399998       1.50360411E-05
   21.3600006       1.43458083E-05
   21.4799995       1.33209878E-05
   21.6000004       1.19763072E-05
   21.7199993       1.03374168E-05
   21.8400002       8.44008355E-06
   21.9599991       6.32896172E-06
   22.0799999       4.05599712E-06
   22.2000008       1.67855001E-06
   22.3199997      -7.42684335E-07
   22.4400005      -3.14585373E-06
   22.5599995      -5.47013224E-06
   22.6800003      -7.65781351E-06
   22.7999992      -9.65622712E-06
   22.9200001      -1.14194136E-05
   23.0400009      -1.29094824E-05
   23.1599998      -1.40976399E-05
   23.2800007      -1.49648367E-05
   23.3999996      -1.55020407E-05
   23.5200005      -1.57101622E-05
   23.6399994      -1.55996167E-05
   23.7600002      -1.51896020E-05
   23.8799992      -1.45071181E-05
   24.0000000      -1.35857554E-05
   24.1200008      -1.24643566E-05
   24.2399998      -1.11855552E-05
   24.3600006      -9.79427114E-06
   24.4799995      -8.33620470E-06
   24.6000004      -6.85638588E-06
   24.7199993      -5.39779649E-06
   24.8400002      -4.00013778E-06
   24.9599991      -2.69874249E-06
   25.0799999      -1.52367670E-06
   25.2000008      -4.99047644E-07
   25.3199997       3.57471066E-07
   25.4400005       1.03488594E-06
   25.5599995       1.52890243E-06
   25.6800003       1.84172075E-06
   25.7999992       1.98162229E-06
   25.9200001       1.96236397E-06
   26.0400009       1.80240875E-06
   26.1599998       1.52402117E-06
   26.2800007       1.15226396E-06
   26.3999996       7.13933161E-07
   26.5200005       2.36472587E-07
   26.6399994      -2.53094186E-07
   26.7600002      -7.29174076E-07
   26.8799992      -1.16852334E-06
   27.0000000      -1.55104203E-06
   27.1200008      -1.86041939E-06
   27.2399998      -2.08460733E-06
   27.3600006      -2.21611253E-06
   27.4799995      -2.25209578E-06
   27.6000004      -2.19428443E-06
   27.7199993      -2.04870389E-06
   27.8400002      -1.82524047E-06
   27.9599991      -1.53706219E-06
   28.0799999      -1.19991955E-06
   28.2000008      -8.31356999E-07
   28.3199997      -4.49869930E-07
   28.4400005      -7.40418500E-08
   28.5599995       2.78302849E-07
   28.6800003       5.90895411E-07
   28.7999992       8.49736239E-07
   28.9200001       1.04369678E-06
   29.0400009       1.16498495E-06
   29.1599998       1.20945526E-06
   29.2800007       1.17675393E-06
   29.3999996       1.07028916E-06
   29.5200005       8.97031043E-07
   29.6399994       6.67148925E-07
   29.7600002       3.93499818E-07
   29.8799992       9.09911719E-08
   30.0000000      -2.24155599E-07
   30.1200008      -5.35208528E-07
   30.2399998      -8.25758491E-07
   30.3600006      -1.08054383E-06
   30.4799995      -1.28622605E-06
   30.6000004      -1.43207671E-06
   30.7199993      -1.51053860E-06
   30.8400002      -1.51762868E-06
   30.9599991      -1.45315721E-06
   31.0799999      -1.32074615E-06
   31.2000008      -1.12763985E-06
   31.3199997      -8.84315170E-07
   31.4400005      -6.03904027E-07
   31.5599995      -3.01462478E-07
   31.6800003       6.87812118E-09
   31.7999992       3.04826870E-07
   31.9200001       5.76863386E-07
   32.0400009       8.09124572E-07
   32.1599998       9.90193598E-07
   32.2799988       1.11174154E-06
   32.4000015       1.16898264E-06
   32.5200005       1.16091167E-06
   32.6399994       1.09031430E-06
   32.7599983       9.63547905E-07
   32.8800011       7.90111301E-07
   33.0000000       5.82033977E-07
   33.1199989       3.53126325E-07
   33.2400017       1.18140953E-07
   33.3600006      -1.08099719E-07
   33.4799995      -3.11555539E-07
   33.5999985      -4.79748110E-07
   33.7200012      -6.02423995E-07
   33.8400002      -6.72066733E-07
   33.9599991      -6.84233953E-07
   34.0800018      -6.37708979E-07
   34.2000008      -5.34467688E-07
   34.3199997      -3.79472510E-07
   34.4399986      -1.80314586E-07
   34.5600014       5.32682627E-08
   34.6800003       3.09964094E-07
   34.7999992       5.77515948E-07
   34.9199982       8.43371424E-07
   35.0400009       1.09532016E-06
   35.1599998       1.32208811E-06
   35.2799988       1.51386382E-06
   35.4000015       1.66273469E-06
   35.5200005       1.76301808E-06
   35.6399994       1.81147630E-06
   35.7599983       1.80740847E-06
   35.8800011       1.75261994E-06
   36.0000000       1.65127051E-06
   36.1199989       1.50960852E-06
   36.2400017       1.33560275E-06
   36.3600006       1.13848660E-06
   36.4799995       9.28234385E-07
   36.5999985       7.14994087E-07
   36.7200012       5.08503831E-07
   36.8400002       3.17523387E-07
   36.9599991       1.49314914E-07
   37.0800018       9.20591336E-09
   37.2000008      -9.97322758E-08
   37.3199997      -1.76862642E-07
   37.4399986      -2.23995656E-07
   37.5600014      -2.45225266E-07
   37.6800003      -2.46587490E-07
   37.7999992      -2.35554722E-07
   37.9199982      -2.20392934E-07
   38.0400009      -2.09423135E-07
   38.1599998      -2.10239776E-07
   38.2799988      -2.28948508E-07
   38.4000015      -2.69488851E-07
   38.5200005      -3.33106300E-07
   38.6399994      -4.18031220E-07
   38.7599983      -5.19407706E-07
   38.8800011      -6.29497663E-07
   39.0000000      -7.38160679E-07
   39.1199989      -8.33589070E-07
   39.2400017      -9.03247496E-07
   39.3600006      -9.34951061E-07
   39.4799995      -9.17992679E-07
   39.5999985      -8.44225440E-07
   39.7200012      -7.09000801E-07
   39.8400002      -5.11873168E-07
   39.9599991      -2.56995662E-07
   40.0800018       4.68424481E-08
   40.2000008       3.86556394E-07
   40.3199997       7.45472789E-07
   40.4399986       1.10435610E-06
   40.5600014       1.44267892E-06
   40.6800003       1.74003753E-06
   40.7999992       1.97759641E-06
   40.9199982       2.13944622E-06
   41.0400009       2.21375740E-06
   41.1599998       2.19363824E-06
   41.2799988       2.07762537E-06
   41.4000015       1.86976854E-06
   41.5200005       1.57930742E-06
   41.6399994       1.21997368E-06
   41.7599983       8.08983430E-07
   41.8800011       3.65809569E-07
   42.0000000      -8.91574317E-08
   42.1199989      -5.35948232E-07
   42.2400017      -9.56244207E-07
   42.3600006      -1.33440233E-06
   42.4799995      -1.65820563E-06
   42.5999985      -1.91929462E-06
   42.7200012      -2.11326847E-06
   42.8400002      -2.23947336E-06
   42.9599991      -2.30052501E-06
   43.0800018      -2.30163346E-06
   43.2000008      -2.24980386E-06
   43.3199997      -2.15300633E-06
   43.4399986      -2.01938929E-06
   43.5600014      -1.85660906E-06
   43.6800003      -1.67132544E-06
   43.7999992      -1.46889283E-06
   43.9199982      -1.25325766E-06
   44.0400009      -1.02704371E-06
   44.1599998      -7.91796538E-07
   44.2799988      -5.48338733E-07
   44.4000015      -2.97185238E-07
   44.5200005      -3.89630728E-08
   44.6399994       2.25211878E-07
   44.7599983       4.93441519E-07
   44.8800011       7.62861418E-07
   45.0000000       1.02957824E-06
   45.1199989       1.28872568E-06
   45.2400017       1.53462679E-06
   45.3600006       1.76103481E-06
   45.4799995       1.96142901E-06
   45.5999985       2.12933128E-06
   45.7200012       2.25861891E-06
   45.8400002       2.34381287E-06
   45.9599991       2.38032476E-06
   46.0800018       2.36466076E-06
   46.2000008       2.29458146E-06
   46.3199997       2.16922172E-06
   46.4399986       1.98918360E-06
   46.5600014       1.75660523E-06
   46.6800003       1.47521143E-06
   46.7999992       1.15034516E-06
   46.9199982       7.88970340E-07
   47.0400009       3.99634246E-07
   47.1599998      -7.62941532E-09
   47.2799988      -4.21474255E-07
   47.4000015      -8.29508508E-07
   47.5200005      -1.21866572E-06
   47.6399994      -1.57567922E-06
   47.7599983      -1.88764830E-06
   47.8800011      -2.14267243E-06
   48.0000000      -2.33051651E-06
   48.1199989      -2.44325656E-06
   48.2400017      -2.47586149E-06
   48.3600006      -2.42664623E-06
   48.4799995      -2.29755551E-06
   48.5999985      -2.09423570E-06
   48.7200012      -1.82587303E-06
   48.8400002      -1.50479207E-06
   48.9599991      -1.14583236E-06
   49.0800018      -7.65537720E-07
   49.2000008      -3.81211720E-07
   49.3199997      -9.90724658E-09
   49.4399986       3.32575809E-07
   49.5600014       6.32609897E-07
   49.6800003       8.79505706E-07
   49.7999992       1.06606808E-06
   49.9199982       1.18890182E-06
   50.0400009       1.24844814E-06
   50.1599998       1.24875521E-06
   50.2799988       1.19700769E-06
   50.4000015       1.10285782E-06
   50.5200005       9.77617901E-07
   50.6399994       8.33379033E-07
   50.7599983       6.82128587E-07
   50.8800011       5.34931189E-07
   51.0000000       4.01233336E-07
   51.1199989       2.88334633E-07
   51.2400017       2.01055798E-07
   51.3600006       1.41613754E-07
   51.4799995       1.09697801E-07
   51.5999985       1.02724499E-07
   51.7200012       1.16237466E-07
   51.8400002       1.44409555E-07
   51.9599991       1.80600821E-07
   52.0800018       2.17926981E-07
   52.2000008       2.49796869E-07
   52.3199997       2.70384618E-07
   52.4399986       2.75011530E-07
   52.5600014       2.60421700E-07
   52.6800003       2.24945069E-07
   52.7999992       1.68549064E-07
   52.9199982       9.27868200E-08
   53.0400009       6.53663734E-10
   53.1599998      -1.03632672E-07
   53.2799988      -2.14912362E-07
   53.4000015      -3.27407605E-07
   53.5200005      -4.35073900E-07
   53.6399994      -5.31962201E-07
   53.7599983      -6.12575946E-07
   53.8800011      -6.72205545E-07
   54.0000000      -7.07224274E-07
   54.1199989      -7.15328383E-07
   54.2400017      -6.95704784E-07
   54.3600006      -6.49113815E-07
   54.4799995      -5.77874573E-07
   54.5999985      -4.85750263E-07
   54.7200012      -3.77732562E-07
   54.8400002      -2.59736055E-07
   54.9599991      -1.38218653E-07
   55.0800018      -1.97522692E-08
   55.2000008       8.94267913E-08
   55.3199997       1.83854866E-07
   55.4399986       2.59231825E-07
   55.5600014       3.12734926E-07
   55.6800003       3.43229090E-07
   55.7999992       3.51355311E-07
   55.9199982       3.39487201E-07
   56.0400009       3.11555738E-07
   56.1599998       2.72752317E-07
   56.2799988       2.29129597E-07
   56.4000015       1.87126645E-07
   56.5200005       1.53051758E-07
   56.6399994       1.32559393E-07
   56.7599983       1.30159606E-07
   56.8800011       1.48796644E-07
   57.0000000       1.89530311E-07
   57.1199989       2.51347899E-07
   57.2400017       3.31125534E-07
   57.3600006       4.23749384E-07
   57.4799995       5.22394600E-07
   57.5999985       6.18948604E-07
   57.7200012       7.04553656E-07
   57.8400002       7.70232361E-07
   57.9599991       8.07552567E-07
   58.0800018       8.09280664E-07
   58.2000008       7.69972871E-07
   58.3199997       6.86456133E-07
   58.4399986       5.58156955E-07
   58.5600014       3.87249827E-07
   58.6800003       1.78610563E-07
   58.7999992      -6.04219750E-08
   58.9199982      -3.20456564E-07
   59.0400009      -5.90596812E-07
   59.1599998      -8.59077659E-07
   59.2799988      -1.11393626E-06
   59.4000015      -1.34366144E-06
   59.5200005      -1.53777103E-06
   59.6399994      -1.68727593E-06
   59.7599983      -1.78500363E-06
   59.8800011      -1.82577469E-06
   60.0000000      -1.80643667E-06
   60.1199989      -1.72578177E-06
   60.2400017      -1.58438297E-06
   60.3600006      -1.38439066E-06
   60.4799995      -1.12933253E-06
   60.5999985      -8.23953371E-07
   60.7200012      -4.74120924E-07
   60.8400002      -8.68077592E-08
   60.9599991       3.29856960E-07
   61.0800018       7.66490530E-07
   61.2000008       1.21235155E-06
   61.3199997       1.65527547E-06
   61.4399986       2.08170081E-06
   61.5600014       2.47683397E-06
   61.6800003       2.82498763E-06
   61.7999992       3.11011036E-06
   61.9199982       3.31650517E-06
   62.0400009       3.42970407E-06
   62.1599998       3.43745228E-06
   62.2799988       3.33072217E-06
   62.4000015       3.10467613E-06
   62.5200005       2.75948423E-06
   62.6399994       2.30090382E-06
   62.7599983       1.74055026E-06
   62.8800011       1.09579798E-06
   63.0000000       3.89287351E-07
   63.1199989      -3.51959443E-07
   63.2400017      -1.09777636E-06
   63.3600006      -1.81637608E-06
   63.4799995      -2.47606113E-06
   63.5999985      -3.04701030E-06
   63.7200012      -3.50301525E-06
   63.8400002      -3.82304370E-06
   63.9599991      -3.99251667E-06
   64.0800018      -4.00420367E-06
   64.1999969      -3.85867634E-06
   64.3199997      -3.56428041E-06
   64.4400024      -3.13663168E-06
   64.5599976      -2.59767762E-06
   64.6800003      -1.97438339E-06
   64.8000031      -1.29714647E-06
   64.9199982      -5.98043982E-07
   65.0400009       9.09617199E-08
   65.1600037       7.39742575E-07
   65.2799988       1.32153775E-06
   65.4000015       1.81421012E-06
   65.5199966       2.20115635E-06
   65.6399994       2.47183630E-06
   65.7600021       2.62190520E-06
   65.8799973       2.65297331E-06
   66.0000000       2.57203533E-06
   66.1200027       2.39063388E-06
   66.2399979       2.12383316E-06
   66.3600006       1.78909488E-06
   66.4800034       1.40513214E-06
   66.5999985       9.90827289E-07
   66.7200012       5.64275979E-07
   66.8399963       1.42007480E-07
   66.9599991      -2.61587871E-07
   67.0800018      -6.34613059E-07
   67.1999969      -9.67809456E-07
   67.3199997      -1.25451606E-06
   67.4400024      -1.49047855E-06
   67.5599976      -1.67355336E-06
   67.6800003      -1.80335394E-06
   67.8000031      -1.88088291E-06
   67.9199982      -1.90819196E-06
   68.0400009      -1.88809508E-06
   68.1600037      -1.82395786E-06
   68.2799988      -1.71956196E-06
   68.4000015      -1.57904321E-06
   68.5199966      -1.40687985E-06
   68.6399994      -1.20791105E-06
   68.7600021      -9.87353928E-07
   68.8799973      -7.50796119E-07
   69.0000000      -5.04140019E-07
   69.1200027      -2.53489986E-07
   69.2399979      -4.97965136E-09
   69.3600006       2.35450131E-07
   69.4800034       4.62301102E-07
   69.5999985       6.70768543E-07
   69.7200012       8.56962231E-07
   69.8399963       1.01806665E-06
   69.9599991       1.15241539E-06
   70.0800018       1.25946690E-06
   70.1999969       1.33967262E-06
   70.3199997       1.39425356E-06
   70.4400024       1.42490251E-06
   70.5599976       1.43344789E-06
   70.6800003       1.42151919E-06
   70.8000031       1.39025565E-06
   70.9199982       1.34010065E-06
   71.0400009       1.27071178E-06
   71.1600037       1.18100786E-06
   71.2799988       1.06935829E-06
   71.4000015       9.33900765E-07
   71.5199966       7.72960959E-07
   71.6399994       5.85530813E-07
   71.7600021       3.71753202E-07
   71.8799973       1.33356508E-07
   72.0000000      -1.26016374E-07
   72.1200027      -4.00632587E-07
   72.2399979      -6.82681559E-07
   72.3600006      -9.62492095E-07
   72.4800034      -1.22895040E-06
   72.5999985      -1.47009530E-06
   72.7200012      -1.67384690E-06