  -30.0000000       0.00000000    
  -29.8799992       0.00000000    
  -29.7600002       0.00000000    
  -29.6399994       0.00000000    
  -29.5200005       0.00000000    
  -29.3999996       0.00000000    
  -29.2800007       0.00000000    
  -29.1599998      -1.41236959E-29
  -29.0400009      -1.80479708E-29
  -28.9200001       8.50710894E-28
  -28.7999992       7.25594646E-27
  -28.6800003       3.13802828E-26
  -28.5599995       8.31078522E-26
  -28.4400005       1.12345182E-25
  -28.3199997      -1.24476840E-25
  -28.2000008      -1.20612425E-24
  -28.0799999      -3.92171983E-24
  -27.9599991      -8.42922016E-24
  -27.8400002      -1.24587966E-23
  -27.7199993      -9.26033798E-24
  -27.6000004       1.25279466E-23
  -27.4799995       6.39893295E-23
  -27.3600006       1.44169821E-22
  -27.2399998       2.23853557E-22
  -27.1200008       2.33165700E-22
  -27.0000000       6.55079814E-23
  -26.8799992      -3.90025958E-22
  -26.7600002      -1.18054163E-21
  -26.6399994      -2.18624321E-21
  -26.5200005      -2.99679256E-21
  -26.3999996      -2.81269217E-21
  -26.2800007      -4.76500512E-22
  -26.1599998       5.19179992E-21
  -26.0400009       1.45754135E-20
  -25.9200001       2.59526786E-20
  -25.7999992       3.41221276E-20
  -25.6800003       2.99468979E-20
  -25.5599995       2.13633812E-21
  -25.4400005      -5.78117499E-20
  -25.3199997      -1.47944548E-19
  -25.2000008      -2.47799659E-19
  -25.0799999      -3.13641556E-19
  -24.9599991      -2.80398279E-19
  -24.8400002      -7.20266549E-20
  -24.7199993       3.78955582E-19
  -24.6000004       1.09961720E-18
  -24.4799995       2.02387687E-18
  -24.3600006       2.90956190E-18
  -24.2399998       3.23464284E-18
  -24.1200008       2.13289596E-18
  -24.0000000      -1.49583982E-18
  -23.8799992      -8.51465477E-18
  -23.7600002      -1.85925717E-17
  -23.6399994      -2.88984845E-17
  -23.5200005      -3.30554575E-17
  -23.3999996      -2.14826729E-17
  -23.2800007       1.55611186E-17
  -23.1599998       8.15524314E-17
  -23.0400009       1.64989326E-16
  -22.9200001       2.32154314E-16
  -22.7999992       2.27581315E-16
  -22.6800003       8.88109612E-17
  -22.5599995      -2.21713177E-16
  -22.4400005      -6.73361441E-16
  -22.3199997      -1.13004550E-15
  -22.2000008      -1.34590412E-15
  -22.0799999      -1.02090636E-15
  -21.9599991       7.28082059E-17
  -21.8400002       1.91648086E-15
  -21.7199993       4.08708855E-15
  -21.6000004       5.71359976E-15
  -21.4799995       5.64184760E-15
  -21.3600006       2.84675005E-15
  -21.2399998      -2.97858225E-15
  -21.1200008      -1.08596248E-14
  -21.0000000      -1.83025863E-14
  -20.8799992      -2.16727559E-14
  -20.7600002      -1.73176157E-14
  -20.6399994      -3.25646242E-15
  -20.5200005       1.91043301E-14
  -20.3999996       4.40321980E-14
  -20.2800007       6.20914114E-14
  -20.1599998       6.27116021E-14
  -20.0400009       3.83324184E-14
  -19.9200001      -1.11236094E-14
  -19.7999992      -7.53304618E-14
  -19.6800003      -1.34066206E-13
  -19.5599995      -1.62155025E-13
  -19.4400005      -1.38219094E-13
  -19.3199997      -5.47205679E-14
  -19.2000008       7.46050154E-14
  -19.0799999       2.13894874E-13
  -18.9599991       3.13195650E-13
  -18.8400002       3.24543913E-13
  -18.7199993       2.21570971E-13
  -18.6000004       1.54073616E-14
  -18.4799995      -2.40633549E-13
  -18.3600006      -4.62256915E-13
  -18.2399998      -5.60398028E-13
  -18.1200008      -4.75105957E-13
  -18.0000000      -2.04939066E-13
  -17.8799992       1.81034387E-13
  -17.7600002       5.57024750E-13
  -17.6399994       7.79545861E-13
  -17.5200005       7.40642031E-13
  -17.3999996       4.16390284E-13
  -17.2800007      -1.09748168E-13
  -17.1599998      -6.62469211E-13
  -17.0400009      -1.02928560E-12
  -16.9200001      -1.03864898E-12
  -16.7999992      -6.33841504E-13
  -16.6800003       8.76361294E-14
  -16.5599995       8.90041133E-13
  -16.4400005       1.47226556E-12
  -16.3199997       1.57643625E-12
  -16.2000008       1.09382349E-12
  -16.0799999       1.25722119E-13
  -15.9600000      -1.03027851E-12
  -15.8400002      -1.97190701E-12
  -15.7200003      -2.33422309E-12
  -15.6000004      -1.93143591E-12
  -15.4799995      -8.42799571E-13
  -15.3599997       5.96266526E-13
  -15.2399998       1.90240488E-12
  -15.1199999       2.61715432E-12
  -15.0000000       2.48098764E-12
  -14.8800001       1.53988270E-12
  -14.7600002       1.38103355E-13
  -14.6400003      -1.20619151E-12
  -14.5200005      -1.99855497E-12
  -14.3999996      -1.96278323E-12
  -14.2799997      -1.15330976E-12
  -14.1599998       6.36520323E-14
  -14.0400000       1.15717277E-12
  -13.9200001       1.65016742E-12
  -13.8000002       1.32026399E-12
  -13.6800003       2.97582380E-13
  -13.5600004      -9.85551593E-13
  -13.4399996      -1.97626269E-12
  -13.3199997      -2.24007857E-12
  -13.1999998      -1.65509783E-12
  -13.0799999      -4.74378512E-13
  -12.9600000       7.76625780E-13
  -12.8400002       1.52971722E-12
  -12.7200003       1.43479347E-12
  -12.6000004       5.37084483E-13
  -12.4799995      -7.13388929E-13
  -12.3599997      -1.63497764E-12
  -12.2399998      -1.60531104E-12
  -12.1199999      -3.49334385E-13
  -12.0000000       1.90217438E-12
  -11.8800001       4.46113676E-12
  -11.7600002       6.42939478E-12
  -11.6400003       7.04888925E-12
  -11.5200005       6.00826160E-12
  -11.3999996       3.56951751E-12
  -11.2799997       4.49153410E-13
  -11.1599998      -2.50704535E-12
  -11.0400000      -4.72042631E-12
  -10.9200001      -6.16727719E-12
  -10.8000002      -7.40846186E-12
  -10.6800003      -9.31057488E-12
  -10.5600004      -1.25412267E-11
  -10.4399996      -1.70348700E-11
  -10.3199997      -2.16706514E-11
  -10.1999998      -2.43534585E-11
  -10.0799999      -2.25528207E-11
  -9.96000004      -1.41764751E-11
  -9.84000015       1.49837076E-12
  -9.72000027       2.31794427E-11
  -9.60000038       4.74859908E-11
  -9.47999954       6.95615163E-11
  -9.35999966       8.42500791E-11
  -9.23999977       8.74948100E-11
  -9.11999989       7.74981329E-11
  -9.00000000       5.52177228E-11
  -8.88000011       2.39624015E-11
  -8.76000023      -1.18549762E-11
  -8.64000034      -4.84512083E-11
  -8.52000046      -8.43337344E-11
  -8.39999962      -1.21303148E-10
  -8.27999973      -1.64383118E-10
  -8.15999985      -2.20589588E-10
  -8.03999996      -2.96831448E-10
  -7.92000008      -3.97546968E-10
  -7.80000019      -5.22815125E-10
  -7.67999983      -6.67586875E-10
  -7.55999994      -8.22374335E-10
  -7.44000006      -9.75304060E-10
  -7.32000017      -1.11501530E-09
  -7.19999981      -1.23359789E-09
  -7.07999992      -1.32871147E-09
  -6.96000004      -1.40423517E-09
  -6.84000015      -1.46920909E-09
  -6.71999979      -1.53532620E-09
  -6.59999990      -1.61367408E-09
  -6.48000002      -1.71166570E-09
  -6.36000013      -1.83107063E-09
  -6.23999977      -1.96775463E-09
  -6.11999989      -2.11324425E-09
  -6.00000000      -2.25770358E-09
  -5.88000011      -2.39347453E-09
  -5.76000023      -2.51815591E-09
  -5.63999987      -2.63629585E-09
  -5.51999998      -2.75914758E-09
  -5.40000010      -2.90247959E-09
  -5.28000021      -3.08298009E-09
  -5.15999985      -3.31420713E-09
  -5.03999996      -3.60320329E-09
  -4.92000008      -3.94874267E-09
  -4.80000019      -4.34178160E-09
  -4.67999983      -4.76809081E-09
  -4.55999994      -5.21243360E-09
  -4.44000006      -5.66319924E-09
  -4.32000017      -6.11616091E-09
  -4.19999981      -6.57623023E-09
  -4.07999992      -7.05653891E-09
  -3.96000004      -7.57496288E-09
  -3.83999991      -8.14899259E-09
  -3.72000003      -8.79045192E-09
  -3.59999990      -9.50174606E-09
  -3.48000002      -1.02750022E-08
  -3.35999990      -1.10946248E-08
  -3.24000001      -1.19427215E-08
  -3.11999989      -1.28058772E-08
  -3.00000000      -1.36811913E-08
  -2.88000011      -1.45795997E-08
  -2.75999999      -1.55252735E-08
  -2.64000010      -1.65510894E-08
  -2.51999998      -1.76914288E-08
  -2.40000010      -1.89744309E-08
  -2.27999997      -2.04159605E-08
  -2.16000009      -2.20170975E-08
  -2.03999996      -2.37657449E-08
  -1.91999996      -2.56417891E-08
  -1.79999995      -2.76241607E-08
  -1.67999995      -2.96977642E-08
  -1.55999994      -3.18583808E-08
  -1.44000006      -3.41143327E-08
  -1.32000005      -3.64847779E-08
  -1.20000005      -3.89953563E-08
  -1.08000004      -4.16725499E-08
 -0.959999979      -4.45383712E-08
 -0.839999974      -4.76068713E-08
 -0.720000029      -5.08832194E-08
 -0.600000024      -5.43656036E-08
 -0.479999989      -5.80492951E-08
 -0.360000014      -6.19316438E-08
 -0.239999995      -6.60164758E-08
 -0.119999997      -7.03165881E-08
  -1.11022302E-15  -7.48533395E-08
  0.119999997      -7.96536028E-08
  0.239999995      -8.47447481E-08
  0.360000014      -9.01496122E-08
  0.479999989      -9.58829460E-08
  0.600000024      -1.01950910E-07
  0.720000029      -1.08353930E-07
  0.839999974      -1.15092178E-07
  0.959999979      -1.22171997E-07
   1.08000004      -1.29611195E-07
   1.20000005      -1.37441461E-07
   1.32000005      -1.45707105E-07
   1.44000006      -1.54460167E-07
   1.55999994      -1.63753441E-07
   1.67999995      -1.73633339E-07
   1.79999995      -1.84134294E-07
   1.91999996      -1.95276371E-07
   2.03999996      -2.07066307E-07
   2.16000009      -2.19501871E-07
   2.27999997      -2.32578074E-07
   2.40000010      -2.46294121E-07
   2.51999998      -2.60659363E-07
   2.64000010      -2.75696920E-07
   2.75999999      -2.91445019E-07
   2.88000011      -3.07954991E-07
   3.00000000      -3.25287544E-07
   3.11999989      -3.43507168E-07
   3.24000001      -3.62676872E-07
   3.35999990      -3.82853415E-07
   3.48000002      -4.04084716E-07
   3.59999990      -4.26409201E-07
   3.72000003      -4.49857424E-07
   3.83999991      -4.74455732E-07
   3.96000004      -5.00231181E-07
   4.07999992      -5.27216571E-07
   4.19999981      -5.55454790E-07
   4.32000017      -5.85001089E-07
   4.44000006      -6.15923398E-07
   4.55999994      -6.48298681E-07
   4.67999983      -6.82207713E-07
   4.80000019      -7.17728540E-07
   4.92000008      -7.54930738E-07
   5.03999996      -7.93873198E-07
   5.15999985      -8.34604919E-07
   5.28000021      -8.77170692E-07
   5.40000010      -9.21618096E-07
   5.51999998      -9.68004770E-07
   5.63999987      -1.01640285E-06
   5.76000023      -1.06689970E-06
   5.88000011      -1.11959253E-06
   6.00000000      -1.17458319E-06
   6.11999989      -1.23197105E-06
   6.23999977      -1.29184843E-06
   6.36000013      -1.35430059E-06
   6.48000002      -1.41940745E-06
   6.59999990      -1.48724712E-06
   6.71999979      -1.55789905E-06
   6.84000015      -1.63144546E-06
   6.96000004      -1.70797114E-06
   7.07999992      -1.78756136E-06
   7.19999981      -1.87030116E-06
   7.32000017      -1.95627695E-06
   7.44000006      -2.04557728E-06
   7.55999994      -2.13829617E-06
   7.67999983      -2.23453458E-06
   7.80000019      -2.33440051E-06
   7.92000008      -2.43800741E-06
   8.03999996      -2.54547285E-06
   8.15999985      -2.65691710E-06
   8.27999973      -2.77246363E-06
   8.39999962      -2.89224045E-06
   8.52000046      -3.01638215E-06
   8.64000034      -3.14502768E-06
   8.76000023      -3.27831958E-06
   8.88000011      -3.41640089E-06
   9.00000000      -3.55941324E-06
   9.11999989      -3.70749672E-06
   9.23999977      -3.86079682E-06
   9.35999966      -4.01946727E-06
   9.47999954      -4.18367881E-06
   9.60000038      -4.35361471E-06
   9.72000027      -4.52946870E-06
   9.84000015      -4.71143267E-06
   9.96000004      -4.89968852E-06
   10.0799999      -5.09439633E-06
   10.1999998      -5.29569934E-06
   10.3199997      -5.50372806E-06
   10.4399996      -5.71861483E-06
   10.5600004      -5.94050243E-06
   10.6800003      -6.16955322E-06
   10.8000002      -6.40594681E-06
   10.9200001      -6.64987010E-06
   11.0400000      -6.90151137E-06
   11.1599998      -7.16105205E-06
   11.2799997      -7.42866450E-06
   11.3999996      -7.70451697E-06
   11.5200005      -7.98878773E-06
   11.6400003      -8.28166139E-06
   11.7600002      -8.58333806E-06
   11.8800001      -8.89402691E-06
   12.0000000      -9.21393803E-06
   12.1199999      -9.54327788E-06
   12.2399998      -9.88224292E-06
   12.3599997      -1.02310350E-05
   12.4799995      -1.05898544E-05
   12.6000004      -1.09589146E-05
   12.7200003      -1.13384349E-05
   12.8400002      -1.17286399E-05
   12.9600000      -1.21297453E-05
   13.0799999      -1.25419538E-05
   13.1999998      -1.29654436E-05
   13.3199997      -1.34003858E-05
   13.4399996      -1.38469459E-05
   13.5600004      -1.43053039E-05
   13.6800003      -1.47756637E-05
   13.8000002      -1.52582616E-05
   13.9200001      -1.57533523E-05
   14.0400000      -1.62612032E-05
   14.1599998      -1.67820799E-05
   14.2799997      -1.73162280E-05
   14.3999996      -1.78638911E-05
   14.5200005      -1.84252913E-05
   14.6400003      -1.90006558E-05
   14.7600002      -1.95901994E-05
   14.8800001      -2.01941511E-05
   15.0000000      -2.08127458E-05
   15.1199999      -2.14462307E-05
   15.2399998      -2.20948441E-05
   15.3599997      -2.27588334E-05
   15.4799995      -2.34384406E-05
   15.6000004      -2.41338785E-05
   15.7200003      -2.48453489E-05
   15.8400002      -2.55730192E-05
   15.9600000      -2.63170296E-05
   16.0799999      -2.70774945E-05
   16.2000008      -2.78545303E-05
   16.3199997      -2.86482646E-05
   16.4400005      -2.94588463E-05
   16.5599995      -3.02864573E-05
   16.6800003      -3.11313161E-05
   16.7999992      -3.19936444E-05
   16.9200001      -3.28736642E-05
   17.0400009      -3.37715755E-05
   17.1599998      -3.46875458E-05
   17.2800007      -3.56217097E-05
   17.3999996      -3.65741325E-05
   17.5200005      -3.75448690E-05
   17.6399994      -3.85339226E-05
   17.7600002      -3.95412862E-05
   17.8799992      -4.05669452E-05
   18.0000000      -4.16108705E-05
   18.1200008      -4.26730658E-05
   18.2399998      -4.37535346E-05
   18.3600006      -4.48522987E-05
   18.4799995      -4.59693729E-05
   18.6000004      -4.71047533E-05
   18.7199993      -4.82584073E-05
   18.8400002      -4.94302840E-05
   18.9599991      -5.06202814E-05
   19.0799999      -5.18282723E-05
   19.2000008      -5.30541110E-05
   19.3199997      -5.42976013E-05
   19.4400005      -5.55585175E-05
   19.5599995      -5.68365722E-05
   19.6800003      -5.81313907E-05
   19.7999992      -5.94425583E-05
   19.9200001      -6.07696020E-05
   20.0400009      -6.21120416E-05
   20.1599998      -6.34694079E-05
   20.2800007      -6.48412388E-05
   20.3999996      -6.62271123E-05
   20.5200005      -6.76265918E-05
   20.6399994      -6.90392117E-05
   20.7600002      -7.04644553E-05
   20.8799992      -7.19017407E-05
   21.0000000      -7.33503985E-05
   21.1200008      -7.48096791E-05
   21.2399998      -7.62787604E-05
   21.3600006      -7.77567766E-05
   21.4799995      -7.92427963E-05
   21.6000004      -8.07358374E-05
   21.7199993      -8.22348447E-05
   21.8400002      -8.37387197E-05
   21.9599991      -8.52463345E-05
   22.0799999      -8.67565395E-05
   22.2000008      -8.82681707E-05
   22.3199997      -8.97800419E-05
   22.4400005      -9.12909090E-05
   22.5599995      -9.27994552E-05
   22.6800003      -9.43042833E-05
   22.7999992      -9.58038872E-05
   22.9200001      -9.72966518E-05
   23.0400009      -9.87808817E-05
   23.1599998      -1.00254838E-04
   23.2800007      -1.01716731E-04
   23.3999996      -1.03164770E-04
   23.5200005      -1.04597108E-04
   23.6399994      -1.06011859E-04
   23.7600002      -1.07407068E-04
   23.8799992      -1.08780703E-04
   24.0000000      -1.10130648E-04
   24.1200008      -1.11454698E-04
   24.2399998      -1.12750567E-04
   24.3600006      -1.14015886E-04
   24.4799995      -1.15248171E-04
   24.6000004      -1.16444877E-04
   24.7199993      -1.17603362E-04
   24.8400002      -1.18720905E-04
   24.9599991      -1.19794764E-04
   25.0799999      -1.20822187E-04
   25.2000008      -1.21800462E-04
   25.3199997      -1.22726822E-04
   25.4400005      -1.23598526E-04
   25.5599995      -1.24412720E-04
   25.6800003      -1.25166494E-04
   25.7999992      -1.25856764E-04
   25.9200001      -1.26480401E-04
   26.0400009      -1.27034087E-04
   26.1599998      -1.27514533E-04
   26.2800007      -1.27918378E-04
   26.3999996      -1.28242275E-04
   26.5200005      -1.28482847E-04
   26.6399994      -1.28636675E-04
   26.7600002      -1.28700354E-04
   26.8799992      -1.28670377E-04
   27.0000000      -1.28543208E-04
   27.1200008      -1.28315281E-04
   27.2399998      -1.27983018E-04
   27.3600006      -1.27542808E-04
   27.4799995      -1.26991101E-04
   27.6000004      -1.26324288E-04
   27.7199993      -1.25538820E-04
   27.8400002      -1.24631115E-04
   27.9599991      -1.23597580E-04
   28.0799999      -1.22434649E-04
   28.2000008      -1.21138743E-04
   28.3199997      -1.19706332E-04
   28.4400005      -1.18133910E-04
   28.5599995      -1.16418043E-04
   28.6800003      -1.14555296E-04
   28.7999992      -1.12542300E-04
   28.9200001      -1.10375739E-04
   29.0400009      -1.08052307E-04
   29.1599998      -1.05568761E-04
   29.2800007      -1.02921891E-04
   29.3999996      -1.00108547E-04
   29.5200005      -9.71256522E-05
   29.6399994      -9.39702368E-05
   29.7600002      -9.06394562E-05
   29.8799992      -8.71305965E-05
   30.0000000      -8.34410748E-05
   30.1200008      -7.95684391E-05
   30.2399998      -7.55103829E-05
   30.3600006      -7.12647379E-05
   30.4799995      -6.68294597E-05
   30.6000004      -6.22026564E-05
   30.7199993      -5.73825564E-05
   30.8400002      -5.23675481E-05
   30.9599991      -4.71561834E-05
   31.0799999      -4.17471274E-05
   31.2000008      -3.61391976E-05
   31.3199997      -3.03313736E-05
   31.4400005      -2.43228405E-05
   31.5599995      -1.81130017E-05
   31.6800003      -1.17015252E-05
   31.7999992      -5.08836274E-06
   31.9200001       1.72624982E-06
   32.0400009       8.74183934E-06
   32.1599998       1.59577394E-05
   32.2799988       2.33731116E-05
   32.4000015       3.09869647E-05
   32.5200005       3.87980945E-05
   32.6399994       4.68050421E-05
   32.7599983       5.50060395E-05
   32.8800011       6.33989912E-05
   33.0000000       7.19814634E-05
   33.1199989       8.07506804E-05
   33.2400017       8.97036443E-05
   33.3600006       9.88370884E-05
   33.4799995       1.08147549E-04
   33.5999985       1.17631309E-04
   33.7200012       1.27284395E-04
   33.8400002       1.37102557E-04
   33.9599991       1.47081199E-04
   34.0800018       1.57215458E-04
   34.2000008       1.67500155E-04
   34.3199997       1.77929891E-04
   34.4399986       1.88499020E-04
   34.5600014       1.99201619E-04
   34.6800003       2.10031474E-04
   34.7999992       2.20982023E-04
   34.9199982       2.32046397E-04
   35.0400009       2.43217321E-04
   35.1599998       2.54487270E-04
   35.2799988       2.65848415E-04
   35.4000015       2.77292682E-04
   35.5200005       2.88811949E-04
   35.6399994       3.00397747E-04
   35.7599983       3.12041608E-04
   35.8800011       3.23734683E-04
   36.0000000       3.35468038E-04
   36.1199989       3.47232388E-04
   36.2400017       3.59018217E-04
   36.3600006       3.70815804E-04
   36.4799995       3.82615224E-04
   36.5999985       3.94406350E-04
   36.7200012       4.06178908E-04
   36.8400002       4.17922420E-04
   36.9599991       4.29626321E-04
   37.0800018       4.41279844E-04
   37.2000008       4.52872191E-04
   37.3199997       4.64392302E-04
   37.4399986       4.75829176E-04
   37.5600014       4.87171812E-04
   37.6800003       4.98409092E-04
   37.7999992       5.09529898E-04
   37.9199982       5.20523172E-04
   38.0400009       5.31377795E-04
   38.1599998       5.42082649E-04
   38.2799988       5.52626443E-04
   38.4000015       5.62998059E-04
   38.5200005       5.73186320E-04
   38.6399994       5.83180285E-04
   38.7599983       5.92969009E-04
   38.8800011       6.02541608E-04
   39.0000000       6.11887546E-04
   39.1199989       6.20996288E-04
   39.2400017       6.29857532E-04
   39.3600006       6.38461090E-04
   39.4799995       6.46796660E-04
   39.5999985       6.54854462E-04
   39.7200012       6.62624720E-04
   39.8400002       6.70097768E-04
   39.9599991       6.77264528E-04
   40.0800018       6.84116094E-04
   40.2000008       6.90643850E-04
   40.3199997       6.96839823E-04
   40.4399986       7.02696212E-04
   40.5600014       7.08205567E-04
   40.6800003       7.13360787E-04
   40.7999992       7.18155119E-04
   40.9199982       7.22582161E-04
   41.0400009       7.26635917E-04
   41.1599998       7.30310741E-04
   41.2799988       7.33601279E-04
   41.4000015       7.36502698E-04
   41.5200005       7.39010517E-04
   41.6399994       7.41120719E-04
   41.7599983       7.42829638E-04
   41.8800011       7.44134304E-04
   42.0000000       7.45032041E-04
   42.1199989       7.45521043E-04
   42.2400017       7.45599740E-04
   42.3600006       7.45267142E-04
   42.4799995       7.44522782E-04
   42.5999985       7.43366661E-04
   42.7200012       7.41799304E-04
   42.8400002       7.39821815E-04
   42.9599991       7.37435592E-04
   43.0800018       7.34642730E-04
   43.2000008       7.31445907E-04
   43.3199997       7.27848324E-04
   43.4399986       7.23853416E-04
   43.5600014       7.19465374E-04
   43.6800003       7.14688504E-04
   43.7999992       7.09527929E-04
   43.9199982       7.03989121E-04
   44.0400009       6.98078133E-04
   44.1599998       6.91801368E-04
   44.2799988       6.85165927E-04
   44.4000015       6.78179436E-04
   44.5200005       6.70849695E-04
   44.6399994       6.63185026E-04
   44.7599983       6.55194221E-04
   44.8800011       6.46886299E-04
   45.0000000       6.38270751E-04
   45.1199989       6.29357470E-04
   45.2400017       6.20156701E-04
   45.3600006       6.10679155E-04
   45.4799995       6.00936008E-04
   45.5999985       5.90938667E-04
   45.7200012       5.80698776E-04
   45.8400002       5.70228265E-04
   45.9599991       5.59539068E-04
   46.0800018       5.48643700E-04
   46.2000008       5.37554675E-04
   46.3199997       5.26284741E-04
   46.4399986       5.14846994E-04
   46.5600014       5.03254414E-04
   46.6800003       4.91520215E-04
   46.7999992       4.79657727E-04
   46.9199982       4.67680191E-04
   47.0400009       4.55601141E-04
   47.1599998       4.43434081E-04
   47.2799988       4.31192660E-04
   47.4000015       4.18890559E-04
   47.5200005       4.06541367E-04
   47.6399994       3.94158706E-04
   47.7599983       3.81756166E-04
   47.8800011       3.69347137E-04
   48.0000000       3.56944860E-04
   48.1199989       3.44562548E-04
   48.2400017       3.32213182E-04
   48.3600006       3.19909683E-04
   48.4799995       3.07664741E-04
   48.5999985       2.95490754E-04
   48.7200012       2.83399946E-04
   48.8400002       2.71404308E-04
   48.9599991       2.59515451E-04
   49.0800018       2.47744814E-04
   49.2000008       2.36103573E-04
   49.3199997       2.24602642E-04
   49.4399986       2.13252628E-04
   49.5600014       2.02063806E-04
   49.6800003       1.91045969E-04
   49.7999992       1.80208532E-04
   49.9199982       1.69560473E-04
   50.0400009       1.59110321E-04
   50.1599998       1.48866282E-04
   50.2799988       1.38836229E-04
   50.4000015       1.29027670E-04
   50.5200005       1.19447701E-04
   50.6399994       1.10103043E-04
   50.7599983       1.00999947E-04
   50.8800011       9.21441315E-05
   51.0000000       8.35408646E-05
   51.1199989       7.51948683E-05
   51.2400017       6.71104644E-05
   51.3600006       5.92914876E-05
   51.4799995       5.17413500E-05
   51.5999985       4.44630095E-05
   51.7200012       3.74589617E-05
   51.8400002       3.07312293E-05
   51.9599991       2.42813530E-05
   52.0800018       1.81104278E-05
   52.2000008       1.22191423E-05
   52.3199997       6.60779415E-06
   52.4399986       1.27630267E-06
   52.5600014      -3.77580091E-06
   52.6800003      -8.54939844E-06
   52.7999992      -1.30458111E-05
   52.9199982      -1.72668151E-05
   53.0400009      -2.12146369E-05
   53.1599998      -2.48919223E-05
   53.2799988      -2.83016852E-05
   53.4000015      -3.14472563E-05
   53.5200005      -3.43322790E-05
   53.6399994      -3.69606532E-05
   53.7599983      -3.93365626E-05
   53.8800011      -4.14644674E-05
   54.0000000      -4.33491441E-05
   54.1199989      -4.49956933E-05
   54.2400017      -4.64095465E-05
   54.3600006      -4.75964480E-05
   54.4799995      -4.85624078E-05
   54.5999985      -4.93136431E-05
   54.7200012      -4.98565350E-05
   54.8400002      -5.01975592E-05
   54.9599991      -5.03432784E-05
   55.0800018      -5.03003284E-05
   55.2000008      -5.00754759E-05
   55.3199997      -4.96756111E-05
   55.4399986      -4.91078135E-05
   55.5600014      -4.83793337E-05
   55.6800003      -4.74975532E-05
   55.7999992      -4.64699697E-05
   55.9199982      -4.53041284E-05
   56.0400009      -4.40075746E-05
   56.1599998      -4.25878316E-05
   56.2799988      -4.10523862E-05
   56.4000015      -3.94087256E-05
   56.5200005      -3.76643002E-05
   56.6399994      -3.58265461E-05
   56.7599983      -3.39028484E-05
   56.8800011      -3.19005121E-05
   57.0000000      -2.98267369E-05
   57.1199989      -2.76886094E-05
   57.2400017      -2.54930947E-05
   57.3600006      -2.32470575E-05
   57.4799995      -2.09572700E-05
   57.5999985      -1.86304133E-05
   57.7200012      -1.62730703E-05
   57.8400002      -1.38916921E-05
   57.9599991      -1.14925715E-05
   58.0800018      -9.08181391E-06
   58.2000008      -6.66531423E-06
   58.3199997      -4.24875134E-06
   58.4399986      -1.83760278E-06
   58.5600014       5.62839205E-07
   58.6800003       2.94744700E-06
   58.7999992       5.31124806E-06
   58.9199982       7.64943161E-06
   59.0400009       9.95736627E-06
   59.1599998       1.22306337E-05
   59.2799988       1.44650649E-05
   59.4000015       1.66567588E-05
   59.5200005       1.88020877E-05
   59.6399994       2.08976689E-05
   59.7599983       2.29403377E-05
   59.8800011       2.49270961E-05
   60.0000000       2.68550975E-05
   60.1199989       2.87216535E-05
   60.2400017       3.05242429E-05
   60.3600006       3.22605592E-05
   60.4799995       3.39285434E-05
   60.5999985       3.55264128E-05
   60.7200012       3.70526213E-05
   60.8400002       3.85058665E-05
   60.9599991       3.98850461E-05
   61.0800018       4.11892142E-05
   61.2000008       4.24175960E-05
   61.3199997       4.35695729E-05
   61.4399986       4.46447011E-05
   61.5600014       4.56427078E-05
   61.6800003       4.65634621E-05
   61.7999992       4.74070112E-05
   61.9199982       4.81735296E-05
   62.0400009       4.88633232E-05
   62.1599998       4.94768392E-05
   62.2799988       5.00146962E-05
   62.4000015       5.04776908E-05
   62.5200005       5.08667908E-05
   62.6399994       5.11831277E-05
   62.7599983       5.14279636E-05
   62.8800011       5.16026557E-05
   63.0000000       5.17086373E-05
   63.1199989       5.17474073E-05
   63.2400017       5.17205335E-05
   63.3600006       5.16296641E-05
   63.4799995       5.14765088E-05
   63.5999985       5.12628649E-05
   63.7200012       5.09905403E-05
   63.8400002       5.06614015E-05
   63.9599991       5.02773109E-05
   64.0800018       4.98401969E-05
   64.1999969       4.93520347E-05
   64.3199997       4.88148908E-05
   64.4400024       4.82309260E-05
   64.5599976       4.76023597E-05
   64.6800003       4.69314691E-05
   64.8000031       4.62205389E-05
   64.9199982       4.54718393E-05
   65.0400009       4.46876184E-05
   65.1600037       4.38701027E-05
   65.2799988       4.30215150E-05
   65.4000015       4.21440673E-05
   65.5199966       4.12399459E-05
   65.6399994       4.03112863E-05
   65.7600021       3.93601513E-05
   65.8799973       3.83885308E-05
   66.0000000       3.73983385E-05
   66.1200027       3.63914442E-05
   66.2399979       3.53697142E-05
   66.3600006       3.43350403E-05
   66.4800034       3.32893324E-05
   66.5999985       3.22345331E-05
   66.7200012       3.11725635E-05
   66.8399963       3.01053078E-05
   66.9599991       2.90345852E-05
   67.0800018       2.79621618E-05
   67.1999969       2.68897384E-05
   67.3199997       2.58189466E-05
   67.4400024       2.47513526E-05
   67.5599976       2.36884225E-05
   67.6800003       2.26315096E-05
   67.8000031       2.15818418E-05
   67.9199982       2.05405358E-05
   68.0400009       1.95086432E-05
   68.1600037       1.84871787E-05
   68.2799988       1.74771612E-05
   68.4000015       1.64796293E-05
   68.5199966       1.54956197E-05
   68.6399994       1.45261356E-05
   68.7600021       1.35721129E-05
   68.8799973       1.26343921E-05
   69.0000000       1.17137133E-05
   69.1200027       1.08107433E-05
   69.2399979       9.92608602E-06
   69.3600006       9.06031073E-06
   69.4800034       8.21393769E-06
   69.5999985       7.38743393E-06
   69.7200012       6.58118915E-06
   69.8399963       5.79550988E-06
   69.9599991       5.03062802E-06
   70.0800018       4.28672456E-06
   70.1999969       3.56395549E-06
   70.3199997       2.86246723E-06
   70.4400024       2.18239779E-06
   70.5599976       1.52385860E-06
   70.6800003       8.86913426E-07
   70.8000031       2.71564630E-07
   70.9199982      -3.22244261E-07
   71.0400009      -8.94612981E-07
   71.1600037      -1.44566945E-06
   71.2799988      -1.97556415E-06
   71.4000015      -2.48448146E-06
   71.5199966      -2.97266024E-06
   71.6399994      -3.44040905E-06
   71.7600021      -3.88810258E-06
   71.8799973      -4.31615308E-06
   72.0000000      -4.72496959E-06
   72.1200027      -5.11491862E-06
   72.2399979      -5.48630896E-06
   72.3600006      -5.83941392E-06
   72.4800034      -6.17451451E-06
   72.5999985      -6.49194726E-06
   72.7200012      -6.79213508E-06