  -30.0000000       0.00000000    
  -29.8799992       0.00000000    
  -29.7600002       0.00000000    
  -29.6399994       0.00000000    
  -29.5200005       0.00000000    
  -29.3999996       0.00000000    
  -29.2800007      -6.16571324E-44
  -29.1599998      -3.79751884E-43
  -29.0400009       2.10194770E-43
  -28.9200001       6.58330019E-42
  -28.7999992       2.55470723E-41
  -28.6800003       3.24624802E-41
  -28.5599995      -1.09978107E-40
  -28.4400005      -7.19554150E-40
  -28.3199997      -2.05120528E-39
  -28.2000008      -3.28098201E-39
  -28.0799999      -6.94805818E-40
  -27.9599991       1.33173352E-38
  -27.8400002       4.64075467E-38
  -27.7199993       9.28565551E-38
  -27.6000004       1.11531161E-37
  -27.4799995       1.07509888E-38
  -27.3600006      -3.26582809E-37
  -27.2399998      -9.41735884E-37
  -27.1200008      -1.62472239E-36
  -27.0000000      -1.75419770E-36
  -26.8799992      -3.44192018E-37
  -26.7600002       3.48524461E-36
  -26.6399994       9.55759846E-36
  -26.5200005       1.55400712E-35
  -26.3999996       1.64990217E-35
  -26.2800007       6.13705626E-36
  -26.1599998      -1.97025796E-35
  -26.0400009      -5.79647514E-35
  -25.9200001      -9.42129450E-35
  -25.7999992      -1.03078572E-34
  -25.6800003      -5.64865902E-35
  -25.5599995       6.03422634E-35
  -25.4400005       2.30295116E-34
  -25.3199997       3.93275732E-34
  -25.2000008       4.54014306E-34
  -25.0799999       3.15111166E-34
  -24.9599991      -6.98738867E-35
  -24.8400002      -6.42685281E-34
  -24.7199993      -1.21531698E-33
  -24.6000004      -1.50117994E-33
  -24.4799995      -1.21262565E-33
  -24.3600006      -2.04903635E-34
  -24.2399998       1.38545371E-33
  -24.1200008       3.07854109E-33
  -24.0000000       4.12725324E-33
  -23.8799992       3.75184846E-33
  -23.7600002       1.48634107E-33
  -23.6399994      -2.47886816E-33
  -23.5200005      -7.11408593E-33
  -23.3999996      -1.06669684E-32
  -23.2800007      -1.11349334E-32
  -23.1599998      -7.01459283E-33
  -23.0400009       1.89302547E-33
  -22.9200001       1.39330434E-32
  -22.7999992       2.56004978E-32
  -22.6800003       3.22562497E-32
  -22.5599995       2.94799025E-32
  -22.4400005       1.47291470E-32
  -22.3199997      -1.12066063E-32
  -22.2000008      -4.34994094E-32
  -22.0799999      -7.37121768E-32
  -21.9599991      -9.14571045E-32
  -21.8400002      -8.70222171E-32
  -21.7199993      -5.43986518E-32
  -21.6000004       6.03543983E-33
  -21.4799995       8.59283373E-32
  -21.3600006       1.69070729E-31
  -21.2399998       2.33544890E-31
  -21.1200008       2.55871219E-31
  -21.0000000       2.16683223E-31
  -20.8799992       1.06993143E-31
  -20.7600002      -6.63271747E-32
  -20.6399994      -2.77509625E-31
  -20.5200005      -4.82916307E-31
  -20.3999996      -6.27219758E-31
  -20.2800007      -6.54743959E-31
  -20.1599998      -5.24449062E-31
  -20.0400009      -2.25419332E-31
  -19.9200001       2.11492334E-31
  -19.7999992       7.10429148E-31
  -19.6800003       1.15910561E-30
  -19.5599995       1.42999132E-30
  -19.4400005       1.41131262E-30
  -19.3199997       1.04140355E-30
  -19.2000008       3.37333048E-31
  -19.0799999      -5.91708497E-31
  -18.9599991      -1.55348396E-30
  -18.8400002      -2.30659376E-30
  -18.7199993      -2.61508260E-30
  -18.6000004      -2.31328016E-30
  -18.4799995      -1.36570504E-30
  -18.3600006       9.47977713E-32
  -18.2399998       1.76552970E-30
  -18.1200008       3.21825489E-30
  -18.0000000       3.98971246E-30
  -17.8799992       3.70708262E-30
  -17.7600002       2.22397118E-30
  -17.6399994      -2.69991727E-31
  -17.5200005      -3.21011332E-30
  -17.3999996      -5.72834685E-30
  -17.2800007      -6.85480371E-30
  -17.1599998      -5.82828004E-30
  -17.0400009      -2.44289675E-30
  -16.9200001       2.68979984E-30
  -16.7999992       8.10345406E-30
  -16.6800003       1.17726102E-29
  -16.5599995       1.17562954E-29
  -16.4400005       7.06173586E-30
  -16.3199997      -1.55038310E-30
  -16.2000008      -1.11951780E-29
  -16.0799999      -1.72828003E-29
  -15.9600000      -1.49026353E-29
  -15.8400002      -1.01396318E-30
  -15.7200003       2.31309964E-29
  -15.6000004       5.02714961E-29
  -15.4799995       6.72192884E-29
  -15.3599997       5.76050341E-29
  -15.2399998       7.49063594E-30
  -15.1199999      -8.70147005E-29
  -15.0000000      -2.12228597E-28
  -14.8800001      -3.32568283E-28
  -14.7600002      -3.92841560E-28
  -14.6400003      -3.29727223E-28
  -14.5200005      -9.27595389E-29
  -14.3999996       3.28385669E-28
  -14.2799997       8.77591290E-28
  -14.1599998       1.41768002E-27
  -14.0400000       1.73925784E-27
  -13.9200001       1.60195039E-27
  -13.8000002       8.09229829E-28
  -13.6800003      -6.94193215E-28
  -13.5600004      -2.72776622E-27
  -13.4399996      -4.82067738E-27
  -13.3199997      -6.23891871E-27
  -13.1999998      -6.12521142E-27
  -13.0799999      -3.75620357E-27
  -12.9600000       1.12092214E-27
  -12.8400002       7.95928452E-27
  -12.7200003       1.52178310E-26
  -12.6000004       2.04409330E-26
  -12.4799995       2.07171221E-26
  -12.3599997       1.35318488E-26
  -12.2399998      -2.10994985E-27
  -12.1199999      -2.45751896E-26
  -12.0000000      -4.89223523E-26
  -11.8800001      -6.71052849E-26
  -11.7600002      -6.94112732E-26
  -11.6400003      -4.72016001E-26
  -11.5200005       3.41622070E-27
  -11.3999996       7.78678806E-26
  -11.2799997       1.60663319E-25
  -11.1599998       2.25709597E-25
  -11.0400000       2.40594367E-25
  -10.9200001       1.75202963E-25
  -10.8000002       1.36584379E-26
  -10.6800003      -2.33091363E-25
  -10.5600004      -5.18215055E-25
  -10.4399996      -7.58371283E-25
  -10.3199997      -8.45751877E-25
  -10.1999998      -6.74555009E-25
  -10.0799999      -1.79387081E-25
  -9.96000004       6.22283311E-25
  -9.84000015       1.59661582E-24
  -9.72000027       2.48477972E-24
  -9.60000038       2.93393227E-24
  -9.47999954       2.57556045E-24
  -9.35999966       1.14613473E-24
  -9.23999977      -1.37195415E-24
  -9.11999989      -4.62834988E-24
  -9.00000000      -7.85230015E-24
  -8.88000011      -9.91999451E-24
  -8.76000023      -9.57386049E-24
  -8.64000034      -5.78898515E-24
  -8.52000046       1.77032851E-24
  -8.39999962       1.23171724E-23
  -8.27999973       2.36885132E-23
  -8.15999985       3.24384117E-23
  -8.03999996       3.44035967E-23
  -7.92000008       2.57655950E-23
  -7.80000019       4.47927568E-24
  -7.67999983      -2.82414792E-23
  -7.55999994      -6.68460852E-23
  -7.44000006      -1.01313381E-22
  -7.32000017      -1.18423673E-22
  -7.19999981      -1.04641825E-22
  -7.07999992      -5.03821100E-23
  -6.96000004       4.51227870E-23
  -6.84000015       1.69657311E-22
  -6.71999979       2.96210050E-22
  -6.59999990       3.85111317E-22
  -6.48000002       3.91141471E-22
  -6.36000013       2.75480982E-22
  -6.23999977       2.07811758E-23
  -6.11999989      -3.54076948E-22
  -6.00000000      -7.84311109E-22
  -5.88000011      -1.15982354E-21
  -5.76000023      -1.34015417E-21
  -5.63999987      -1.18512879E-21
  -5.51999998      -5.98205013E-22
  -5.40000010       4.25634508E-22
  -5.28000021       1.76029568E-21
  -5.15999985       3.13277269E-21
  -5.03999996       4.14552752E-21
  -4.92000008       4.34551540E-21
  -4.80000019       3.33749686E-21
  -4.67999983       9.24961298E-22
  -4.55999994      -2.75279973E-21
  -4.44000006      -7.12983401E-21
  -4.32000017      -1.12135649E-20
  -4.19999981      -1.37101406E-20
  -4.07999992      -1.32851144E-20
  -3.96000004      -8.93310067E-21
  -3.83999991      -3.88217788E-22
  -3.72000003       1.15295802E-20
  -3.59999990       2.47558323E-20
  -3.48000002       3.61226025E-20
  -3.35999990       4.18624250E-20
  -3.24000001       3.84536654E-20
  -3.11999989       2.36783084E-20
  -3.00000000      -2.34231821E-21
  -2.88000011      -3.64392544E-20
  -2.75999999      -7.23230053E-20
  -2.64000010      -1.01364244E-19
  -2.51999998      -1.14260267E-19
  -2.40000010      -1.03362796E-19
  -2.27999997      -6.51714085E-20
  -2.16000009      -2.29325445E-21
  -2.03999996       7.58772970E-20
  -1.91999996       1.54325316E-19
  -1.79999995       2.15564444E-19
  -1.67999995       2.44278972E-19
  -1.55999994       2.32286998E-19
  -1.44000006       1.82130967E-19
  -1.32000005       1.07486143E-19
  -1.20000005       2.90812567E-20
  -1.08000004      -3.39683560E-20
 -0.959999979      -7.57257743E-20
 -0.839999974      -1.14218521E-19
 -0.720000029      -1.96204954E-19
 -0.600000024      -3.90316727E-19
 -0.479999989      -7.64536053E-19
 -0.360000014      -1.34786868E-18
 -0.239999995      -2.08213582E-18
 -0.119999997      -2.77702750E-18
  -1.11022302E-15  -3.08803997E-18
  0.119999997      -2.54009113E-18
  0.239999995      -6.16659786E-19
  0.360000014       3.07695575E-18
  0.479999989       8.58790658E-18
  0.600000024       1.53666567E-17
  0.720000029       2.20630973E-17
  0.839999974       2.64603613E-17
  0.959999979       2.56464355E-17
   1.08000004       1.65047331E-17
   1.20000005      -3.44834537E-18
   1.32000005      -3.49397517E-17
   1.44000006      -7.57071960E-17
   1.55999994      -1.19458856E-16
   1.67999995      -1.55426496E-16
   1.79999995      -1.68950145E-16
   1.91999996      -1.43465133E-16
   2.03999996      -6.40610422E-17
   2.16000009       7.75622180E-17
   2.27999997       2.77377429E-16
   2.40000010       5.13697954E-16
   2.51999998       7.43822618E-16
   2.64000010       9.04490898E-16
   2.75999999       9.17860254E-16
   2.88000011       7.04109213E-16
   3.00000000       2.00613348E-16
   3.11999989      -6.14021330E-16
   3.24000001      -1.69474649E-15
   3.35999990      -2.90929708E-15
   3.48000002      -4.02888596E-15
   3.59999990      -4.73775174E-15
   3.72000003      -4.66769576E-15
   3.83999991      -3.46054781E-15
   3.96000004      -8.56247183E-16
   4.07999992       3.20263136E-15
   4.19999981       8.46672027E-15
   4.32000017       1.42998135E-14
   4.44000006       1.96510644E-14
   4.55999994       2.31075399E-14
   4.67999983       2.30488659E-14
   4.80000019       1.79121854E-14
   4.92000008       6.55503467E-15
   5.03999996      -1.13221988E-14
   5.15999985      -3.47602772E-14
   5.28000021      -6.12217457E-14
   5.40000010      -8.64729363E-14
   5.51999998      -1.04770176E-13
   5.63999987      -1.09429169E-13
   5.76000023      -9.38083229E-14
   5.88000011      -5.26642769E-14
   6.00000000       1.62517484E-14
   6.11999989       1.10584021E-13
   6.23999977       2.22060231E-13
   6.36000013       3.35842248E-13
   6.48000002       4.30905393E-13
   6.59999990       4.81742196E-13
   6.71999979       4.61537546E-13
   6.84000015       3.46734441E-13
   6.96000004       1.22620284E-13
   7.07999992      -2.10749956E-13
   7.19999981      -6.33271105E-13
   7.32000017      -1.10132725E-12
   7.44000006      -1.54739622E-12
   7.55999994      -1.88381147E-12
   7.67999983      -2.01138520E-12
   7.80000019      -1.83295696E-12
   7.92000008      -1.27108328E-12
   8.03999996      -2.88115723E-13
   8.15999985       1.09405551E-12
   8.27999973       2.77808484E-12
   8.39999962       4.58300672E-12
   8.52000046       6.24760139E-12
   8.64000034       7.44827724E-12
   8.76000023       7.83289319E-12
   8.88000011       7.06973369E-12
   9.00000000       4.90808132E-12
   9.11999989       1.24394353E-12
   9.23999977      -3.81824737E-12
   9.35999966      -9.91904562E-12
   9.47999954      -1.64243341E-11
   9.60000038      -2.24433614E-11
   9.72000027      -2.68922627E-11
   9.84000015      -2.86058521E-11
   9.96000004      -2.64935521E-11
   10.0799999      -1.97275946E-11
   10.1999998      -7.94327017E-12
   10.3199997       8.57592643E-12
   10.4399996       2.87602980E-11
   10.5600004       5.06961452E-11
   10.6800003       7.16776499E-11
   10.8000002       8.83889212E-11
   10.9200001       9.72227021E-11
   11.0400000       9.47235762E-11
   11.1599998       7.81225501E-11
   11.2799997       4.59088080E-11
   11.3999996      -1.63399524E-12
   11.5200005      -6.20111601E-11
   11.6400003      -1.30307293E-10
   11.7600002      -1.99261330E-10
   11.8800001      -2.59682109E-10
   12.0000000      -3.01225572E-10
   12.1199999      -3.13510023E-10
   12.2399998      -2.87494362E-10
   12.3599997      -2.16992563E-10
   12.4799995      -1.00153150E-10
   12.6000004       5.92993640E-11
   12.7200003       2.51273974E-10
   12.8400002       4.59171229E-10
   12.9600000       6.60542565E-10
   13.0799999       8.28630886E-10
   13.1999998       9.34775923E-10
   13.3199997       9.51555168E-10
   13.4399996       8.56415827E-10
   13.5600004       6.35445307E-10
   13.6800003       2.86849711E-10
   13.8000002      -1.76337139E-10
   13.9200001      -7.24776850E-10
   14.0400000      -1.31298505E-09
   14.1599998      -1.88139948E-09
   14.2799997      -2.36046049E-09
   14.3999996      -2.67658651E-09
   14.5200005      -2.75969869E-09
   14.6400003      -2.55171373E-09
   14.7600002      -2.01523087E-09
   14.8800001      -1.14149523E-09
   15.0000000       4.33397658E-11
   15.1199999       1.47458956E-09
   15.2399998       3.04885317E-09
   15.3599997       4.62781813E-09
   15.4799995       6.04627948E-09
   15.6000004       7.12419945E-09
   15.7200003       7.68219799E-09
   15.8400002       7.55948104E-09
   15.9600000       6.63279165E-09
   16.0799999       4.83475260E-09
   16.2000008       2.16978302E-09
   16.3199997      -1.27421829E-09
   16.4400005      -5.32004529E-09
   16.5599995      -9.70252412E-09
   16.6800003      -1.40778331E-08
   16.7999992      -1.80410176E-08
   16.9200001      -2.11512248E-08
   17.0400009      -2.29635120E-08
   17.1599998      -2.30653807E-08
   17.2800007      -2.11156248E-08
   17.3999996      -1.68826677E-08
   17.5200005      -1.02793543E-08
   17.6399994      -1.39112699E-09
   17.7600002       9.50517798E-09
   17.8799992       2.19341807E-08
   18.0000000       3.52280338E-08
   18.1200008       4.85464220E-08
   18.2399998       6.09101036E-08
   18.3600006       7.12468875E-08
   18.4799995       7.84476413E-08
   18.6000004       8.14297891E-08
   18.7199993       7.92046535E-08
   18.8400002       7.09455250E-08
   18.9599991       5.60532065E-08
   19.0799999       3.42164270E-08
   19.2000008       5.46572343E-09
   19.3199997      -2.97800504E-08
   19.4400005      -7.06739485E-08
   19.5599995      -1.15906367E-07
   19.6800003      -1.63673775E-07
   19.7999992      -2.11648427E-07
   19.9200001      -2.56947715E-07
   20.0400009      -2.96102314E-07
   20.1599998      -3.25025610E-07
   20.2800007      -3.38987888E-07
   20.3999996      -3.32602781E-07
   20.5200005      -2.99836103E-07
   20.6399994      -2.34049054E-07
   20.7600002      -1.28091017E-07
   20.8799992       2.55446508E-08
   21.0000000       2.34488013E-07
   21.1200008       5.06173080E-07
   21.2399998       8.47428282E-07
   21.3600006       1.26397822E-06
   21.4799995       1.75987043E-06
   21.6000004       2.33684841E-06
   21.7199993       2.99370299E-06
   21.8400002       3.72564614E-06
   21.9599991       4.52375207E-06
   22.0799999       5.37452797E-06
   22.2000008       6.25966413E-06
   22.3199997       7.15601436E-06
   22.4400005       8.03586136E-06
   22.5599995       8.86748057E-06
   22.6800003       9.61604201E-06
   22.7999992       1.02448039E-05
   22.9200001       1.07166161E-05
   23.0400009       1.09956327E-05
   23.1599998       1.10491883E-05
   23.2800007       1.08497161E-05
   23.3999996       1.03766261E-05
   23.5200005       9.61798378E-06
   23.6399994       8.57191662E-06
   23.7600002       7.24759320E-06
   23.8799992       5.66571225E-06
   24.0000000       3.85841849E-06
   24.1200008       1.86860984E-06
   24.2399998      -2.51361314E-07
   24.3600006      -2.44155876E-06
   24.4799995      -4.63682545E-06
   24.6000004      -6.76952959E-06
   24.7199993      -8.77254843E-06
   24.8400002      -1.05823328E-05
   24.9599991      -1.21418725E-05
   25.0799999      -1.34033908E-05
   25.2000008      -1.43306124E-05
   25.3199997      -1.49004527E-05
   25.4400005      -1.51040313E-05
   25.5599995      -1.49469543E-05
   25.6800003      -1.44488204E-05
   25.7999992      -1.36420131E-05
   25.9200001      -1.25698252E-05
   26.0400009      -1.12840544E-05
   26.1599998      -9.84221333E-06
   26.2800007      -8.30452973E-06
   26.3999996      -6.73092882E-06
   26.5200005      -5.17816306E-06
   26.6399994      -3.69728673E-06
   26.7600002      -2.33159312E-06
   26.8799992      -1.11513179E-06
   27.0000000      -7.18654434E-08
   27.1200008       7.84516033E-07
   27.2399998       1.45015736E-06
   27.3600006       1.93004735E-06
   27.4799995       2.23658799E-06
   27.6000004       2.38785901E-06
   27.7199993       2.40573013E-06
   27.8400002       2.31397189E-06
   27.9599991       2.13651401E-06
   28.0799999       1.89596892E-06
   28.2000008       1.61251410E-06
   28.3199997       1.30318779E-06
   28.4400005       9.81612857E-07
   28.5599995       6.58122929E-07
   28.6800003       3.40231480E-07
   28.7999992       3.33534338E-08
   28.9200001      -2.58329408E-07
   29.0400009      -5.30977786E-07
   29.1599998      -7.80295693E-07
   29.2800007      -1.00092302E-06
   29.3999996      -1.18610330E-06
   29.5200005      -1.32767263E-06
   29.6399994      -1.41638691E-06
   29.7600002      -1.44256353E-06
   29.8799992      -1.39698307E-06
   30.0000000      -1.27196154E-06
   30.1200008      -1.06249013E-06
   30.2399998      -7.67319023E-07
   30.3600006      -3.89866443E-07
   30.4799995       6.11568041E-08
   30.6000004       5.71496798E-07
   30.7199993       1.12154021E-06
   30.8400002       1.68695692E-06
   30.9599991       2.23978577E-06
   31.0799999       2.74991271E-06
   31.2000008       3.18684761E-06
   31.3199997       3.52168809E-06
   31.4400005       3.72912041E-06
   31.5599995       3.78932009E-06
   31.6800003       3.68959172E-06
   31.7999992       3.42562407E-06
   31.9200001       3.00224292E-06
   32.0400009       2.43359113E-06
   32.1599998       1.74269485E-06
   32.2799988       9.60430157E-07
   32.4000015       1.23937795E-07
   32.5200005      -7.25418033E-07
   32.6399994      -1.54442012E-06
   32.7599983      -2.29054376E-06
   32.8800011      -2.92451136E-06
   33.0000000      -3.41268264E-06
   33.1199989      -3.72912268E-06
   33.2400017      -3.85720614E-06
   33.3600006      -3.79064954E-06
   33.4799995      -3.53390442E-06
   33.5999985      -3.10188216E-06
   33.7200012      -2.51903293E-06
   33.8400002      -1.81784480E-06
   33.9599991      -1.03685954E-06
   34.0800018      -2.18344695E-07
   34.2000008       5.94225355E-07
   34.3199997       1.35871369E-06
   34.4399986       2.03672585E-06
   34.5600014       2.59572653E-06
   34.6800003       3.01073715E-06
   34.7999992       3.26552185E-06
   34.9199982       3.35319737E-06
   35.0400009       3.27625435E-06
   35.1599998       3.04600985E-06
   35.2799988       2.68154758E-06
   35.4000015       2.20824359E-06
   35.5200005       1.65598919E-06
   35.6399994       1.05724405E-06
   35.7599983       4.45056344E-07
   35.8800011      -1.48822991E-07
   36.0000000      -6.95611220E-07
   36.1199989      -1.17086051E-06
   36.2400017      -1.55545331E-06
   36.3600006      -1.83619261E-06
   36.4799995      -2.00598538E-06
   36.5999985      -2.06364780E-06
   36.7200012      -2.01338480E-06
   36.8400002      -1.86401815E-06
   36.9599991      -1.62804656E-06
   37.0800018      -1.32062462E-06
   37.2000008      -9.58545343E-07
   37.3199997      -5.59298030E-07
   37.4399986      -1.40255608E-07
   37.5600014       2.81974309E-07
   37.6800003       6.92020251E-07
   37.7999992       1.07604887E-06
   37.9199982       1.42192221E-06
   38.0400009       1.71925024E-06
   38.1599998       1.95938105E-06
   38.2799988       2.13537669E-06
   38.4000015       2.24201381E-06
   38.5200005       2.27583928E-06
   38.6399994       2.23529173E-06
   38.7599983       2.12088844E-06
   38.8800011       1.93545634E-06
   39.0000000       1.68437180E-06
   39.1199989       1.37576092E-06
   39.2400017       1.02061188E-06
   39.3600006       6.32743365E-07
   39.4799995       2.28588590E-07
   39.5999985      -1.73238320E-07
   39.7200012      -5.52604661E-07
   39.8400002      -8.88741852E-07
   39.9599991      -1.16131571E-06
   40.0800018      -1.35162850E-06
   40.2000008      -1.44387980E-06
   40.3199997      -1.42639590E-06
   40.4399986      -1.29273303E-06
   40.5600014      -1.04255810E-06
   40.6800003      -6.82219422E-07
   40.7999992      -2.24937210E-07
   40.9199982       3.09431670E-07
   41.0400009       8.95075061E-07
   41.1599998       1.50133678E-06
   41.2799988       2.09421432E-06
   41.4000015       2.63816219E-06
   41.5200005       3.09810616E-06
   41.6399994       3.44153477E-06
   41.7599983       3.64055086E-06
   41.8800011       3.67373582E-06
   42.0000000       3.52770644E-06
   42.1199989       3.19825426E-06
   42.2400017       2.69098473E-06
   42.3600006       2.02139790E-06
   42.4799995       1.21439791E-06
   42.5999985       3.03245827E-07
   42.7200012      -6.71989483E-07
   42.8400002      -1.66639802E-06
   42.9599991      -2.63249967E-06
   43.0800018      -3.52269194E-06
   43.2000008      -4.29173042E-06
   43.3199997      -4.89910508E-06
   43.4399986      -5.31117121E-06
   43.5600014      -5.50292452E-06
   43.6800003      -5.45932016E-06
   43.7999992      -5.17606941E-06
   43.9199982      -4.65988205E-06
   44.0400009      -3.92814536E-06
   44.1599998      -3.00807528E-06
   44.2799988      -1.93539336E-06
   44.4000015      -7.52613005E-07
   44.5200005       4.92963920E-07
   44.6399994       1.75142782E-06
   44.7599983       2.97250313E-06
   44.8800011       4.10773418E-06
   45.0000000       5.11251437E-06
   45.1199989       5.94786206E-06
   45.2400017       6.58187628E-06
   45.3600006       6.99082329E-06
   45.4799995       7.15982060E-06
   45.5999985       7.08312882E-06
   45.7200012       6.76404943E-06
   45.8400002       6.21448498E-06
   45.9599991       5.45419334E-06
   46.0800018       4.50979951E-06
   46.2000008       3.41362875E-06
   46.3199997       2.20241986E-06
   46.4399986       9.15976671E-07
   46.5600014      -4.04193656E-07
   46.6800003      -1.71621105E-06
   46.7999992      -2.97909310E-06
   46.9199982      -4.15394607E-06
   47.0400009      -5.20505500E-06
   47.1599998      -6.10087363E-06
   47.2799988      -6.81490064E-06
   47.4000015      -7.32644321E-06
   47.5200005      -7.62124728E-06
   47.6399994      -7.69199687E-06
   47.7599983      -7.53864515E-06
   47.8800011      -7.16856493E-06
   48.0000000      -6.59648686E-06
   48.1199989      -5.84419922E-06
   48.2400017      -4.93997959E-06
   48.3600006      -3.91775438E-06
   48.4799995      -2.81597113E-06
   48.5999985      -1.67620635E-06
   48.7200012      -5.41540373E-07
   48.8400002       5.45245541E-07
   48.9599991       1.54357326E-06
   49.0800018       2.41697785E-06
   49.2000008       3.13491660E-06
   49.3199997       3.67436382E-06
   49.4399986       4.02107798E-06
   49.5600014       4.17044475E-06
   49.6800003       4.12780992E-06
   49.7999992       3.90825608E-06
   49.9199982       3.53580276E-06
   50.0400009       3.04205582E-06
   50.1599998       2.46436662E-06
   50.2799988       1.84360169E-06
   50.4000015       1.22165682E-06
   50.5200005       6.38869892E-07
   50.6399994       1.31505161E-07
   50.7599983      -2.70523628E-07
   50.8800011      -5.45532259E-07
   51.0000000      -6.81414235E-07
   51.1199989      -6.76359150E-07
   51.2400017      -5.38886695E-07
   51.3600006      -2.87188556E-07
   51.4799995       5.21800274E-08
   51.5999985       4.46172265E-07
   51.7200012       8.57557836E-07
   51.8400002       1.24751091E-06
   51.9599991       1.57830164E-06
   52.0800018       1.81591065E-06
   52.2000008       1.93239225E-06
   52.3199997       1.90783180E-06
   52.4399986       1.73177148E-06
   52.5600014       1.40401767E-06
   52.6800003       9.34782747E-07
   52.7999992       3.44160071E-07
   52.9199982      -3.39026826E-07
   53.0400009      -1.07892402E-06
   53.1599998      -1.83478289E-06
   53.2799988      -2.56340081E-06
   53.4000015      -3.22171309E-06
   53.5200005      -3.76938556E-06
   53.6399994      -4.17125148E-06
   53.7599983      -4.39945688E-06
   53.8800011      -4.43518638E-06
   54.0000000      -4.26987845E-06
   54.1199989      -3.90585865E-06
   54.2400017      -3.35635377E-06
   54.3600006      -2.64488745E-06
   54.4799995      -1.80408995E-06
   54.5999985      -8.73984277E-07
   54.7200012       1.00155049E-07
   54.8400002       1.07025187E-06
   54.9599991       1.98805151E-06
   55.0800018       2.80776499E-06
   55.2000008       3.48858634E-06
   55.3199997       3.99693272E-06
   55.4399986       4.30828095E-06
   55.5600014       4.40848453E-06
   55.6800003       4.29449938E-06
   55.7999992       3.97447047E-06
   55.9199982       3.46718298E-06
   56.0400009       2.80090194E-06
   56.1599998       2.01169405E-06
   56.2799988       1.14132285E-06
   56.4000015       2.34865226E-07
   56.5200005      -6.61806496E-07
   56.6399994      -1.50451513E-06
   56.7599983      -2.25309122E-06
   56.8800011      -2.87337139E-06
   57.0000000      -3.33876983E-06
   57.1199989      -3.63134927E-06
   57.2400017      -3.74234969E-06
   57.3600006      -3.67217126E-06
   57.4799995      -3.42985527E-06
   57.5999985      -3.03212505E-06
   57.7200012      -2.50208927E-06
   57.8400002      -1.86770785E-06
   57.9599991      -1.16014655E-06
   58.0800018      -4.12121949E-07
   58.2000008       3.43660105E-07
   58.3199997       1.07589824E-06
   58.4399986       1.75586763E-06
   58.5600014       2.35834455E-06
   58.6800003       2.86228101E-06
   58.7999992       3.25124483E-06
   58.9199982       3.51365952E-06
   59.0400009       3.64287848E-06
   59.1599998       3.63713366E-06
   59.2799988       3.49939182E-06
   59.4000015       3.23713493E-06
   59.5200005       2.86207660E-06
   59.6399994       2.38980829E-06
   59.7599983       1.83936243E-06
   59.8800011       1.23266739E-06
   60.0000000       5.93882078E-07
   60.1199989      -5.14094225E-08
   60.2400017      -6.77137223E-07
   60.3600006      -1.25780514E-06
   60.4799995      -1.76963067E-06
   60.5999985      -2.19171238E-06
   60.7200012      -2.50715107E-06
   60.8400002      -2.70404576E-06
   60.9599991      -2.77628010E-06
   61.0800018      -2.72402190E-06
   61.2000008      -2.55387613E-06
   61.3199997      -2.27865121E-06
   61.4399986      -1.91672666E-06
   61.5600014      -1.49104937E-06
   61.6800003      -1.02780723E-06
   61.7999992      -5.54866347E-07
   61.9199982      -1.00075397E-07
   62.0400009       3.10441067E-07
   62.1599998       6.53879169E-07
   62.2799988       9.12125188E-07
   62.4000015       1.07280027E-06
   62.5200005       1.12990904E-06
   62.6399994       1.08405277E-06
   62.7599983       9.42203599E-07
   62.8800011       7.17071998E-07
   63.0000000       4.26129560E-07
   63.1199989       9.03735184E-08
   63.2400017      -2.67064223E-07
   63.3600006      -6.22357049E-07
   63.4799995      -9.52371124E-07
   63.5999985      -1.23591133E-06
   63.7200012      -1.45475940E-06
   63.8400002      -1.59446097E-06
   63.9599991      -1.64484641E-06
   64.0800018      -1.60029083E-06
   64.1999969      -1.45973934E-06
   64.3199997      -1.22653648E-06
   64.4400024      -9.08103800E-07
   64.5599976      -5.15506656E-07
   64.6800003      -6.29488071E-08
   64.8000031       4.32782002E-07
   64.9199982       9.52901019E-07
   65.0400009       1.47724177E-06
   65.1600037       1.98490216E-06
   65.2799988       2.45492174E-06
   65.4000015       2.86699606E-06
   65.5199966       3.20221648E-06
   65.6399994       3.44382147E-06
   65.7600021       3.57793078E-06
   65.8799973       3.59422461E-06
   66.0000000       3.48652293E-06
   66.1200027       3.25321616E-06
   66.2399979       2.89750869E-06
   66.3600006       2.42743977E-06
   66.4800034       1.85566307E-06
   66.5999985       1.19899005E-06
   66.7200012       4.77712717E-07
   66.8399963      -2.85251986E-07
   66.9599991      -1.06534242E-06
   67.0800018      -1.83739303E-06
   67.1999969      -2.57666716E-06
   67.3199997      -3.25981591E-06
   67.4400024      -3.86570991E-06
   67.5599976      -4.37610061E-06
   67.6800003      -4.77609001E-06
   67.8000031      -5.05440767E-06
   67.9199982      -5.20350477E-06
   68.0400009      -5.21950142E-06
   68.1600037      -5.10202108E-06
   68.2799988      -4.85396095E-06
   68.4000015      -4.48124001E-06
   68.5199966      -3.99255214E-06
   68.6399994      -3.39915209E-06
   68.7600021      -2.71468230E-06
   68.8799973      -1.95501889E-06
   69.0000000      -1.13812928E-06
   69.1200027      -2.83895901E-07
   69.2399979       5.86125850E-07
   69.3600006       1.44905414E-06
   69.4800034       2.28116073E-06
   69.5999985       3.05849881E-06
   69.7200012       3.75767513E-06
   69.8399963       4.35674428E-06
   69.9599991       4.83618214E-06
   70.0800018       5.17987337E-06
   70.1999969       5.37604592E-06
   70.3199997       5.41806776E-06
   70.4400024       5.30503894E-06
   70.5599976       5.04209447E-06
   70.6800003       4.64039385E-06
   70.8000031       4.11674819E-06
   70.9199982       3.49290281E-06
   71.0400009       2.79449819E-06
   71.1600037       2.04976800E-06
   71.2799988       1.28805061E-06
   71.4000015       5.38220945E-07
   71.5199966      -1.72863139E-07
   71.6399994      -8.21779793E-07
   71.7600021      -1.38973485E-06
   71.8799973      -1.86343516E-06
   72.0000000      -2.23558391E-06
   72.1200027      -2.50495918E-06
   72.2399979      -2.67607174E-06
   72.3600006      -2.75842717E-06
   72.4800034      -2.76544802E-06
   72.5999985      -2.71313843E-06
   72.7200012      -2.61859122E-06