  -30.0000000       0.00000000    
  -29.8799992       0.00000000    
  -29.7600002       0.00000000    
  -29.6399994       0.00000000    
  -29.5200005       0.00000000    
  -29.3999996       0.00000000    
  -29.2800007      -2.52233724E-44
  -29.1599998      -1.97583083E-43
  -29.0400009      -3.96567465E-43
  -28.9200001       1.54563221E-42
  -28.7999992       1.50765702E-41
  -28.6800003       5.46170089E-41
  -28.5599995       1.10090211E-40
  -28.4400005       7.32542785E-41
  -28.3199997      -3.07872279E-40
  -28.2000008      -1.24038176E-39
  -28.0799999      -2.21741329E-39
  -27.9599991      -1.00122915E-39
  -27.8400002       6.65157565E-39
  -27.7199993       2.44786691E-38
  -27.6000004       4.88578796E-38
  -27.4799995       5.95869830E-38
  -27.3600006       1.65022737E-38
  -27.2399998      -1.25202397E-37
  -27.1200008      -3.72638355E-37
  -27.0000000      -6.36890825E-37
  -26.8799992      -6.99284390E-37
  -26.7600002      -2.62488000E-37
  -26.6399994       8.72885360E-37
  -26.5200005       2.54194053E-36
  -26.3999996       4.00747541E-36
  -26.2800007       4.03590854E-36
  -26.1599998       1.43086196E-36
  -26.0400009      -4.03738293E-36
  -25.9200001      -1.07273624E-35
  -25.7999992      -1.49504098E-35
  -25.6800003      -1.21648455E-35
  -25.5599995       3.96139139E-37
  -25.4400005       2.05851618E-35
  -25.3199997       3.95442958E-35
  -25.2000008       4.33102313E-35
  -25.0799999       1.88237398E-35
  -24.9599991      -3.69402113E-35
  -24.8400002      -1.08695621E-34
  -24.7199993      -1.61025978E-34
  -24.6000004      -1.47706272E-34
  -24.4799995      -3.27273440E-35
  -24.3600006       1.82858443E-34
  -24.2399998       4.40353041E-34
  -24.1200008       6.23634972E-34
  -24.0000000       5.90487776E-34
  -23.8799992       2.33701042E-34
  -23.7600002      -4.45529073E-34
  -23.6399994      -1.28365113E-33
  -23.5200005      -1.95637782E-33
  -23.3999996      -2.06012897E-33
  -23.2800007      -1.26875118E-33
  -23.1599998       4.77362883E-34
  -23.0400009       2.82553614E-33
  -22.9200001       4.99387873E-33
  -22.7999992       5.94194431E-33
  -22.6800003       4.72451787E-33
  -22.5599995       9.40931249E-34
  -22.4400005      -4.87979186E-33
  -22.3199997      -1.11436468E-32
  -22.2000008      -1.54471419E-32
  -22.0799999      -1.52482438E-32
  -21.9599991      -8.81872833E-33
  -21.8400002       3.80468363E-33
  -21.7199993       2.02307427E-32
  -21.6000004       3.58078178E-32
  -21.4799995       4.45586797E-32
  -21.3600006       4.08541680E-32
  -21.2399998       2.14441085E-32
  -21.1200008      -1.27450551E-32
  -21.0000000      -5.56911608E-32
  -20.8799992      -9.67360087E-32
  -20.7600002      -1.22592059E-31
  -20.6399994      -1.20620308E-31
  -20.5200005      -8.26703078E-32
  -20.3999996      -8.48660710E-33
  -20.2800007       9.23458135E-32
  -20.1599998       2.00683522E-31
  -20.0400009       2.90600424E-31
  -19.9200001       3.34316212E-31
  -19.7999992       3.08393553E-31
  -19.6800003       1.99988688E-31
  -19.5599995       1.18823605E-32
  -19.4400005      -2.34794911E-31
  -19.3199997      -5.00901277E-31
  -19.2000008      -7.33075940E-31
  -19.0799999      -8.71001253E-31
  -18.9599991      -8.57729076E-31
  -18.8400002      -6.52117246E-31
  -18.7199993      -2.41734324E-31
  -18.6000004       3.46122689E-31
  -18.4799995       1.03814348E-30
  -18.3600006       1.71629153E-30
  -18.2399998       2.22883152E-30
  -18.1200008       2.41194909E-30
  -18.0000000       2.12100991E-30
  -17.8799992       1.26841116E-30
  -17.7600002      -1.37335920E-31
  -17.6399994      -1.95911218E-30
  -17.5200005      -3.91543589E-30
  -17.3999996      -5.59290432E-30
  -17.2800007      -6.49705019E-30
  -17.1599998      -6.14622249E-30
  -17.0400009      -4.20206994E-30
  -16.9200001      -6.14788530E-31
  -16.7999992       4.25473396E-30
  -16.6800003       9.58378852E-30
  -16.5599995       1.41526195E-29
  -16.4400005       1.65490752E-29
  -16.3199997       1.54990777E-29
  -16.2000008       1.02619589E-29
  -16.0799999       9.88810519E-31
  -15.9600000      -1.10759358E-29
  -15.8400002      -2.36510818E-29
  -15.7200003      -3.37774198E-29
  -15.6000004      -3.84375654E-29
  -15.4799995      -3.53072401E-29
  -15.3599997      -2.34467526E-29
  -15.2399998      -3.73313985E-30
  -15.1199999       2.11108689E-29
  -15.0000000       4.69257495E-29
  -14.8800001       6.88664279E-29
  -14.7600002       8.22936925E-29
  -14.6400003       8.35628082E-29
  -14.5200005       7.05148374E-29
  -14.3999996       4.26075438E-29
  -14.2799997       7.96549014E-31
  -14.1599998      -5.25726995E-29
  -14.0400000      -1.13553347E-28
  -13.9200001      -1.75872793E-28
  -13.8000002      -2.29804681E-28
  -13.6800003      -2.61188938E-28
  -13.5600004      -2.51597253E-28
  -13.4399996      -1.80868138E-28
  -13.3199997      -3.29805813E-29
  -13.1999998       1.94721424E-28
  -13.0799999       4.80612014E-28
  -12.9600000       7.69897910E-28
  -12.8400002       9.73217468E-28
  -12.7200003       9.78506264E-28
  -12.6000004       6.79792459E-28
  -12.4799995       2.14555051E-29
  -12.3599997      -9.51135429E-28
  -12.2399998      -2.05184705E-27
  -12.1199999      -2.94754218E-27
  -12.0000000      -3.20688348E-27
  -11.8800001      -2.41493473E-27
  -11.7600002      -3.43291379E-28
  -11.6400003       2.86237736E-27
  -11.5200005       6.54261821E-27
  -11.3999996       9.51266334E-27
  -11.2799997       1.02506304E-26
  -11.1599998       7.31579126E-27
  -11.0400000      -4.68448334E-29
  -10.9200001      -1.12542232E-26
  -10.8000002      -2.39137899E-26
  -10.6800003      -3.38092256E-26
  -10.5600004      -3.55858914E-26
  -10.4399996      -2.42340997E-26
  -10.3199997       2.78808250E-27
  -10.1999998       4.32778799E-26
  -10.0799999       8.86507895E-26
  -9.96000004       1.23901008E-25
  -9.84000015       1.29997917E-25
  -9.72000027       8.90598447E-26
  -9.60000038      -8.23178203E-27
  -9.47999954      -1.54633328E-25
  -9.35999966      -3.20468432E-25
  -9.23999977      -4.53172043E-25
  -9.11999989      -4.85172087E-25
  -9.00000000      -3.51403809E-25
  -8.88000011      -1.48372919E-26
  -8.76000023       5.05368258E-25
  -8.64000034       1.11212841E-24
  -8.52000046       1.62632393E-24
  -8.39999962       1.81068249E-24
  -8.27999973       1.42696457E-24
  -8.15999985       3.22313849E-25
  -8.03999996      -1.47199798E-24
  -7.92000008      -3.65896920E-24
  -7.80000019      -5.64933271E-24
  -7.67999983      -6.62684891E-24
  -7.55999994      -5.72729071E-24
  -7.44000006      -2.32308453E-24
  -7.32000017       3.63596996E-24
  -7.19999981       1.13192381E-23
  -7.07999992       1.88742734E-23
  -6.96000004       2.35764587E-23
  -6.84000015       2.23569349E-23
  -6.71999979       1.27063120E-23
  -6.59999990      -6.18014735E-24
  -6.48000002      -3.22971393E-23
  -6.36000013      -6.01640988E-23
  -6.23999977      -8.10374278E-23
  -6.11999989      -8.43421239E-23
  -6.00000000      -6.04083365E-23
  -5.88000011      -4.19454619E-24
  -5.76000023       8.08035148E-23
  -5.63999987       1.79692556E-22
  -5.51999998       2.65820982E-22
  -5.40000010       3.04196730E-22
  -5.28000021       2.59283736E-22
  -5.15999985       1.06589926E-22
  -5.03999996      -1.54068372E-22
  -4.92000008      -4.87258303E-22
  -4.80000019      -8.17201080E-22
  -4.67999983      -1.03416115E-21
  -4.55999994      -1.01486499E-21
  -4.44000006      -6.56571279E-22
  -4.32000017       8.02221180E-23
  -4.19999981       1.13047569E-21
  -4.07999992       2.29872159E-21
  -3.96000004       3.26376207E-21
  -3.83999991       3.62586867E-21
  -3.72000003       2.99989732E-21
  -3.59999990       1.14448243E-21
  -3.48000002      -1.89834437E-21
  -3.35999990      -5.69309278E-21
  -3.24000001      -9.37801802E-21
  -3.11999989      -1.17530289E-20
  -3.00000000      -1.15118863E-20
  -2.88000011      -7.60653239E-21
  -2.75999999       3.15542620E-22
  -2.64000010       1.15079289E-20
  -2.51999998       2.38969829E-20
  -2.40000010       3.41733256E-20
  -2.27999997       3.83074192E-20
  -2.16000009       3.25031801E-20
  -2.03999996       1.44717672E-20
  -1.91999996      -1.52419337E-20
  -1.79999995      -5.22741732E-20
  -1.67999995      -8.82475116E-20
  -1.55999994      -1.11751170E-19
  -1.44000006      -1.10669399E-19
  -1.32000005      -7.56762145E-20
  -1.20000005      -4.27234949E-21
  -1.08000004       9.56899141E-20
 -0.959999979       2.04320927E-19
 -0.839999974       2.91140408E-19
 -0.720000029       3.20491826E-19
 -0.600000024       2.60843858E-19
 -0.479999989       9.66213712E-20
 -0.360000014      -1.60174866E-19
 -0.239999995      -4.62402803E-19
 -0.119999997      -7.28456245E-19
  -1.11022302E-15  -8.54531856E-19
  0.119999997      -7.39562178E-19
  0.239999995      -3.20272055E-19
  0.360000014       3.90567879E-19
  0.479999989       1.27376126E-18
  0.600000024       2.09470690E-18
  0.720000029       2.52863158E-18
  0.839999974       2.22775952E-18
  0.959999979       9.28298583E-19
   1.08000004      -1.41853058E-18
   1.20000005      -4.52219351E-18
   1.32000005      -7.67842067E-18
   1.44000006      -9.79252391E-18
   1.55999994      -9.54063253E-18
   1.67999995      -5.68545223E-18
   1.79999995       2.47628118E-18
   1.91999996       1.46084811E-17
   2.03999996       2.88990138E-17
   2.16000009       4.18579496E-17
   2.27999997       4.85266830E-17
   2.40000010       4.32369755E-17
   2.51999998       2.09646660E-17
   2.64000010      -2.08273788E-17
   2.75999999      -8.01519882E-17
   2.88000011      -1.48754934E-16
   3.00000000      -2.11301276E-16
   3.11999989      -2.46163312E-16
   3.24000001      -2.28354047E-16
   3.35999990      -1.34817298E-16
   3.48000002       4.82509738E-17
   3.59999990       3.17063279E-16
   3.72000003       6.42622139E-16
   3.83999991       9.66147273E-16
   3.96000004       1.20012689E-15
   4.07999992       1.23726865E-15
   4.19999981       9.68637232E-16
   4.32000017       3.10525693E-16
   4.44000006      -7.62736334E-16
   4.55999994      -2.18548138E-15
   4.67999983      -3.77477268E-15
   4.80000019      -5.22125720E-15
   4.92000008      -6.10614193E-15
   5.03999996      -5.95138944E-15
   5.15999985      -4.30541595E-15
   5.28000021      -8.59345312E-16
   5.40000010       4.42003899E-15
   5.51999998       1.11637765E-14
   5.63999987       1.85114392E-14
   5.76000023       2.50936797E-14
   5.88000011       2.91189022E-14
   6.00000000       2.85862100E-14
   6.11999989       2.16281901E-14
   6.23999977       6.96096504E-15
   6.36000013      -1.56118218E-14
   6.48000002      -4.47251252E-14
   6.59999990      -7.71169559E-14
   6.71999979      -1.07550009E-13
   6.84000015      -1.29099937E-13
   6.96000004      -1.33884643E-13
   7.07999992      -1.14248319E-13
   7.19999981      -6.43304108E-14
   7.32000017       1.81489514E-14
   7.44000006       1.30151491E-13
   7.55999994       2.61974063E-13
   7.67999983       3.96673850E-13
   7.80000019       5.10625505E-13
   7.92000008       5.75477329E-13
   8.03999996       5.61605016E-13
   8.15999985       4.42922012E-13
   8.27999973       2.02626558E-13
   8.39999962      -1.60826254E-13
   8.52000046      -6.28485003E-13
   8.64000034      -1.15750530E-12
   8.76000023      -1.68071091E-12
   8.88000011      -2.11004456E-12
   9.00000000      -2.34445558E-12
   9.11999989      -2.28219613E-12
   9.23999977      -1.83677119E-12
   9.35999966      -9.55013954E-13
   9.47999954       3.64980073E-13
   9.60000038       2.05886957E-12
   9.72000027       3.98709147E-12
   9.84000015       5.93477004E-12
   9.96000004       7.62273578E-12
   10.0799999       8.73073835E-12
   10.1999998       8.93239042E-12
   10.3199997       7.93955873E-12
   10.4399996       5.55207920E-12
   10.5600004       1.70703035E-12
   10.6800003      -3.47932165E-12
   10.8000002      -9.68415799E-12
   10.9200001      -1.63719750E-11
   11.0400000      -2.28147327E-11
   11.1599998      -2.81407380E-11
   11.2799997      -3.14113596E-11
   11.3999996      -3.17208690E-11
   11.5200005      -2.83110497E-11
   11.6400003      -2.06890304E-11
   11.7600002      -8.73470740E-12
   11.8800001       7.21641193E-12
   12.0000000       2.63278583E-11
   12.1199999       4.72643522E-11
   12.2399998       6.82467485E-11
   12.3599997       8.71594533E-11
   12.4799995       1.01703736E-10
   12.6000004       1.09584751E-10
   12.7200003       1.08715509E-10
   12.8400002       9.74185593E-11
   12.9600000       7.46064530E-11
   13.0799999       3.99246990E-11
   13.1999998      -6.15370038E-12
   13.3199997      -6.22856905E-11
   13.4399996      -1.26263347E-10
   13.5600004      -1.95055361E-10
   13.6800003      -2.64868238E-10
   13.8000002      -3.31209560E-10
   13.9200001      -3.88937993E-10
   14.0400000      -4.32295394E-10
   14.1599998      -4.54926485E-10
   14.2799997      -4.49912940E-10
   14.3999996      -4.09862921E-10
   14.5200005      -3.27117944E-10
   14.6400003      -1.94148794E-10
   14.7600002      -4.21467201E-12
   14.8800001       2.47649568E-10
   15.0000000       5.63281644E-10
   15.1199999       9.39682998E-10
   15.2399998       1.36702372E-09
   15.3599997       1.82650817E-09
   15.4799995       2.28833863E-09
   15.6000004       2.71009948E-09
   15.7200003       3.03596037E-09
   15.8400002       3.19715809E-09
   15.9600000       3.11422088E-09
   16.0799999       2.70136691E-09
   16.2000008       1.87339522E-09
   16.3199997       5.55217150E-10
   16.4400005      -1.30610678E-09
   16.5599995      -3.72727182E-09
   16.6800003      -6.67344002E-09
   16.7999992      -1.00430313E-08
   16.9200001      -1.36543017E-08
   17.0400009      -1.72357737E-08
   17.1599998      -2.04228279E-08
   17.2800007      -2.27628707E-08
   17.3999996      -2.37312889E-08
   17.5200005      -2.27599859E-08
   17.6399994      -1.92795593E-08
   17.7600002      -1.27750033E-08
   17.8799992      -2.85350255E-09
   18.0000000       1.06787841E-08
   18.1200008       2.77358669E-08
   18.2399998       4.78736411E-08
   18.3600006       7.02224696E-08
   18.4799995       9.34400859E-08
   18.6000004       1.15695030E-07
   18.7199993       1.34690467E-07
   18.8400002       1.47737310E-07
   18.9599991       1.51883299E-07
   19.0799999       1.44101577E-07
   19.2000008       1.21537639E-07
   19.3199997       8.18091621E-08
   19.4400005       2.33465798E-08
   19.5599995      -5.42423635E-08
   19.6800003      -1.49807292E-07
   19.7999992      -2.60316284E-07
   19.9200001      -3.80573908E-07
   20.0400009      -5.03028502E-07
   20.1599998      -6.17698731E-07
   20.2800007      -7.12247811E-07
   20.3999996      -7.72225974E-07
   20.5200005      -7.81493611E-07
   20.6399994      -7.22827735E-07
   20.7600002      -5.78699371E-07
   20.8799992      -3.32199846E-07
   21.0000000       3.19222266E-08
   21.1200008       5.26162637E-07
   21.2399998       1.15916009E-06
   21.3600006       1.93465826E-06
   21.4799995       2.85060196E-06
   21.6000004       3.89843035E-06
   21.7199993       5.06263814E-06
   21.8400002       6.32064803E-06
   21.9599991       7.64303149E-06
   22.0799999       8.99411134E-06
   22.2000008       1.03329185E-05
   22.3199997       1.16145047E-05
   22.4400005       1.27915519E-05
   22.5599995       1.38162150E-05
   22.6800003       1.46421235E-05
   22.7999992       1.52264283E-05
   22.9200001       1.55318230E-05
   23.0400009       1.55283924E-05
   23.1599998       1.51952354E-05
   23.2800007       1.45217273E-05
   23.3999996       1.35083746E-05
   23.5200005       1.21672083E-05
   23.6399994       1.05216768E-05
   23.7600002       8.60603177E-06
   23.8799992       6.46424405E-06
   24.0000000       4.14848455E-06
   24.1200008       1.71724582E-06
   24.2399998      -7.66806579E-07
   24.3600006      -3.23915310E-06
   24.4799995      -5.63579806E-06
   24.6000004      -7.89559908E-06
   24.7199993      -9.96243216E-06
   24.8400002      -1.17871214E-05
   24.9599991      -1.33290214E-05
   25.0799999      -1.45572203E-05
   25.2000008      -1.54513127E-05
   25.3199997      -1.60017298E-05
   25.4400005      -1.62096439E-05
   25.5599995      -1.60864492E-05
   25.6800003      -1.56529004E-05
   25.7999992      -1.49379457E-05
   25.9200001      -1.39773256E-05
   26.0400009      -1.28120219E-05
   26.1599998      -1.14866243E-05
   26.2800007      -1.00476836E-05
   26.3999996      -8.54212340E-06
   26.5200005      -7.01575527E-06
   26.6399994      -5.51193943E-06
   26.7600002      -4.07043262E-06
   26.8799992      -2.72642865E-06
   27.0000000      -1.50980929E-06
   27.1200008      -4.44604723E-07
   27.2399998       4.51346239E-07
   27.3600006       1.16654201E-06
   27.4799995       1.69578789E-06
   27.6000004       2.04000276E-06
   27.7199993       2.20587799E-06
   27.8400002       2.20540301E-06
   27.9599991       2.05527067E-06
   28.0799999       1.77617676E-06
   28.2000008       1.39202677E-06
   28.3199997       9.29064754E-07
   28.4400005       4.14943003E-07
   28.5599995      -1.22246945E-07
   28.6800003      -6.54958342E-07
   28.7999992      -1.15715977E-06
   28.9200001      -1.60526054E-06
   29.0400009      -1.97895884E-06
   29.1599998      -2.26197812E-06
   29.2800007      -2.44265675E-06
   29.3999996      -2.51436563E-06
   29.5200005      -2.47572370E-06
   29.6399994      -2.33059768E-06
   29.7600002      -2.08787628E-06
   29.8799992      -1.76102060E-06
   30.0000000      -1.36740380E-06
   30.1200008      -9.27464839E-07
   30.2399998      -4.63712468E-07
   30.3600006       3.78019449E-10
   30.4799995       4.41521479E-07
   30.6000004       8.37777009E-07
   30.7199993       1.16964168E-06
   30.8400002       1.42102601E-06
   30.9599991       1.58006253E-06
   31.0799999       1.63969855E-06
   31.2000008       1.59804574E-06
   31.3199997       1.45846229E-06
   31.4400005       1.22936206E-06
   31.5599995       9.23760922E-07
   31.6800003       5.58579586E-07
   31.7999992       1.53743215E-07
   31.9200001      -2.68877301E-07
   32.0400009      -6.86623537E-07
   32.1599998      -1.07724566E-06
   32.2799988      -1.42007059E-06
   32.4000015      -1.69707926E-06
   32.5200005      -1.89383434E-06
   32.6399994      -2.00021009E-06
   32.7599983      -2.01088415E-06
   32.8800011      -1.92556627E-06
   33.0000000      -1.74895763E-06
   33.1199989      -1.49044070E-06
   33.2400017      -1.16352521E-06
   33.3600006      -7.85081113E-07
   33.4799995      -3.74404465E-07
   33.5999985       4.78278146E-08
   33.7200012       4.60657049E-07
   33.8400002       8.43932980E-07
   33.9599991       1.17933780E-06
   34.0800018       1.45128854E-06
   34.2000008       1.64767596E-06
   34.3199997       1.76040294E-06
   34.4399986       1.78570542E-06
   34.5600014       1.72424222E-06
   34.6800003       1.58096327E-06
   34.7999992       1.36476899E-06
   34.9199982       1.08798929E-06
   35.0400009       7.65713992E-07
   35.1599998       4.15016984E-07
   35.2799988       5.41120464E-08
   35.4000015      -2.98514294E-07
   35.5200005      -6.24954794E-07
   35.6399994      -9.08681557E-07
   35.7599983      -1.13526278E-06
   35.8800011      -1.29297121E-06
   36.0000000      -1.37326469E-06
   36.1199989      -1.37112511E-06
   36.2400017      -1.28524800E-06
   36.3600006      -1.11807958E-06
   36.4799995      -8.75701176E-07
   36.5999985      -5.67570169E-07
   36.7200012      -2.06122948E-07
   36.8400002       1.93744853E-07
   36.9599991       6.15303634E-07
   37.0800018       1.04070057E-06
   37.2000008       1.45172908E-06
   37.3199997       1.83062946E-06
   37.4399986       2.16088756E-06
   37.5600014       2.42799524E-06
   37.6800003       2.62013600E-06
   37.7999992       2.72876400E-06
   37.9199982       2.74903505E-06
   38.0400009       2.68006784E-06
   38.1599998       2.52501422E-06
   38.2799988       2.29092007E-06
   38.4000015       1.98838552E-06
   38.5200005       1.63103164E-06
   38.6399994       1.23479742E-06
   38.7599983       8.17106070E-07
   38.8800011       3.95946870E-07
   39.0000000      -1.10753158E-08
   39.1199989      -3.87663334E-07
   39.2400017      -7.19665650E-07
   39.3600006      -9.95775963E-07
   39.4799995      -1.20804850E-06
   39.5999985      -1.35219568E-06
   39.7200012      -1.42765089E-06
   39.8400002      -1.43739453E-06
   39.9599991      -1.38755945E-06
   40.0800018      -1.28684701E-06
   40.2000008      -1.14580166E-06
   40.3199997      -9.75998319E-07
   40.4399986      -7.89205842E-07
   40.5600014      -5.96589643E-07
   40.6800003      -4.08011147E-07
   40.7999992      -2.31475255E-07
   40.9199982      -7.27616225E-08
   41.0400009       6.47396448E-08
   41.1599998       1.79983900E-07
   41.2799988       2.74034903E-07
   41.4000015       3.49663907E-07
   41.5200005       4.10828960E-07
   41.6399994       4.62085154E-07
   41.7599983       5.07982691E-07
   41.8800011       5.52506549E-07
   42.0000000       5.98606903E-07
   42.1199989       6.47859110E-07
   42.2400017       7.00278292E-07
   42.3600006       7.54299947E-07
   42.4799995       8.06921946E-07
   42.5999985       8.53988354E-07
   42.7200012       8.90584715E-07
   42.8400002       9.11505708E-07
   42.9599991       9.11750703E-07
   43.0800018       8.87000965E-07
   43.2000008       8.34040009E-07
   43.3199997       7.51080279E-07
   43.4399986       6.37972221E-07
   43.5600014       4.96283349E-07
   43.6800003       3.29244415E-07
   43.7999992       1.41573196E-07
   43.9199982      -6.08051494E-08
   44.0400009      -2.71114743E-07
   44.1599998      -4.82131213E-07
   44.2799988      -6.86597218E-07
   44.4000015      -8.77619755E-07
   44.5200005      -1.04902097E-06
   44.6399994      -1.19562219E-06
   44.7599983      -1.31344393E-06
   44.8800011      -1.39981626E-06
   45.0000000      -1.45339811E-06
   45.1199989      -1.47411333E-06
   45.2400017      -1.46301466E-06
   45.3600006      -1.42209285E-06
   45.4799995      -1.35404969E-06
   45.5999985      -1.26205532E-06
   45.7200012      -1.14950842E-06
   45.8400002      -1.01981789E-06
   45.9599991      -8.76220611E-07
   46.0800018      -7.21645904E-07
   46.2000008      -5.58633587E-07
   46.3199997      -3.89308042E-07
   46.4399986      -2.15406104E-07
   46.5600014      -3.83533418E-08
   46.6800003       1.40621751E-07
   46.7999992       3.20347738E-07
   46.9199982       4.99558666E-07
   47.0400009       6.76746822E-07
   47.1599998       8.50035633E-07
   47.2799988       1.01708554E-06
   47.4000015       1.17504737E-06
   47.5200005       1.32057028E-06
   47.6399994       1.44986871E-06
   47.7599983       1.55884993E-06
   47.8800011       1.64329481E-06
   48.0000000       1.69908344E-06
   48.1199989       1.72244847E-06
   48.2400017       1.71024124E-06
   48.3600006       1.66018742E-06
   48.4799995       1.57111276E-06
   48.5999985       1.44312037E-06
   48.7200012       1.27770306E-06
   48.8400002       1.07777748E-06
   48.9599991       8.47637921E-07
   49.0800018       5.92826893E-07
   49.2000008       3.19933434E-07
   49.3199997       3.63300678E-08
   49.4399986      -2.50131421E-07
   49.5600014      -5.31445323E-07
   49.6800003      -7.99775478E-07
   49.7999992      -1.04775631E-06
   49.9199982      -1.26875273E-06
   50.0400009      -1.45706679E-06
   50.1599998      -1.60808372E-06
   50.2799988      -1.71835688E-06
   50.4000015      -1.78563562E-06
   50.5200005      -1.80884831E-06
   50.6399994      -1.78805055E-06
   50.7599983      -1.72435489E-06
   50.8800011      -1.61985270E-06
   51.0000000      -1.47754008E-06
   51.1199989      -1.30124977E-06
   51.2400017      -1.09559141E-06
   51.3600006      -8.65893526E-07
   51.4799995      -6.18138074E-07
   51.5999985      -3.58876122E-07
   51.7200012      -9.51126893E-08
   51.8400002       1.65849031E-07
   51.9599991       4.16608401E-07
   52.0800018       6.49911840E-07
   52.2000008       8.58932310E-07
   52.3199997       1.03756770E-06
   52.4399986       1.18073683E-06
   52.5600014       1.28464580E-06
   52.6800003       1.34699962E-06
   52.7999992       1.36713368E-06
   52.9199982       1.34604636E-06
   53.0400009       1.28632314E-06
   53.1599998       1.19195340E-06
   53.2799988       1.06805123E-06
   53.4000015       9.20504704E-07
   53.5200005       7.55585859E-07
   53.6399994       5.79558218E-07
   53.7599983       3.98323010E-07
   53.8800011       2.17139217E-07
   54.0000000       4.04455847E-08
   54.1199989      -1.28198579E-07
   54.2400017      -2.86052142E-07
   54.3600006      -4.31024091E-07
   54.4799995      -5.61427044E-07
   54.5999985      -6.75692206E-07
   54.7200012      -7.72093301E-07
   54.8400002      -8.48528430E-07
   54.9599991      -9.02404054E-07
   55.0800018      -9.30654096E-07
   55.2000008      -9.29912119E-07
   55.3199997      -8.96833853E-07
   55.4399986      -8.28546149E-07
   55.5600014      -7.23180847E-07
   55.6800003      -5.80432243E-07
   55.7999992      -4.02069617E-07
   55.9199982      -1.92332422E-07
   56.0400009       4.18595505E-08
   56.1599998       2.90932604E-07
   56.2799988       5.42953842E-07
   56.4000015       7.84198335E-07
   56.5200005       9.99963731E-07
   56.6399994       1.17557829E-06
   56.7599983       1.29752470E-06
   56.8800011       1.35458038E-06
   57.0000000       1.33887227E-06
   57.1199989       1.24673988E-06
   57.2400017       1.07931589E-06
   57.3600006       8.42755412E-07
   57.4799995       5.48075263E-07
   57.5999985       2.10599651E-07
   57.7200012      -1.50956112E-07
   57.8400002      -5.15697025E-07
   57.9599991      -8.61960018E-07
   58.0800018      -1.16881279E-06
   58.2000008      -1.41751764E-06
   58.3199997      -1.59284014E-06
   58.4399986      -1.68409986E-06
   58.5600014      -1.68588042E-06
   58.6800003      -1.59834985E-06
   58.7999992      -1.42717397E-06
   58.9199982      -1.18304376E-06
   59.0400009      -8.80863752E-07
   59.1599998      -5.38679558E-07
   59.2799988      -1.76435066E-07
   59.4000015       1.85340525E-07
   59.5200005       5.26816507E-07
   59.6399994       8.30028569E-07
   59.7599983       1.07985773E-06
   59.8800011       1.26477130E-06
   60.0000000       1.37729717E-06
   60.1199989       1.41422800E-06
   60.2400017       1.37656843E-06
   60.3600006       1.26925681E-06
   60.4799995       1.10069993E-06
   60.5999985       8.82168422E-07
   60.7200012       6.27095233E-07
   60.8400002       3.50321272E-07
   60.9599991       6.73246561E-08
   61.0800018      -2.06535518E-07
   61.2000008      -4.56735592E-07
   61.3199997      -6.70242798E-07
   61.4399986      -8.36091658E-07
   61.5600014      -9.45862666E-07
   61.6800003      -9.94048492E-07
   61.7999992      -9.78288881E-07
   61.9199982      -8.99461952E-07
   62.0400009      -7.61618026E-07
   62.1599998      -5.71752253E-07
   62.2799988      -3.39418762E-07
   62.4000015      -7.61996120E-08
   62.5200005       2.04946048E-07
   62.6399994       4.90415061E-07
   62.7599983       7.66729670E-07
   62.8800011       1.02128831E-06
   63.0000000       1.24304336E-06
   63.1199989       1.42305464E-06
   63.2400017       1.55487271E-06
   63.3600006       1.63472669E-06
   63.4799995       1.66150426E-06
   63.5999985       1.63653237E-06
   63.7200012       1.56319140E-06
   63.8400002       1.44640455E-06
   63.9599991       1.29206535E-06
   64.0800018       1.10646624E-06
   64.1999969       8.95791516E-07
   64.3199997       6.65730283E-07
   64.4400024       4.21246767E-07
   64.5599976       1.66527713E-07
   64.6800003      -9.48986170E-08
   64.8000031      -3.59899360E-07
   64.9199982      -6.25376856E-07
   65.0400009      -8.87872886E-07
   65.1600037      -1.14320483E-06
   65.2799988      -1.38620055E-06
   65.4000015      -1.61058529E-06
   65.5199966      -1.80905920E-06
   65.6399994      -1.97357690E-06
   65.7600021      -2.09581708E-06
   65.8799973      -2.16780177E-06
   66.0000000      -2.18260561E-06
   66.1200027      -2.13507997E-06
   66.2399979      -2.02250817E-06
   66.3600006      -1.84511680E-06
   66.4800034      -1.60637433E-06
   66.5999985      -1.31303625E-06
   66.7200012      -9.74917839E-07
   66.8399963      -6.04405670E-07
   66.9599991      -2.15747477E-07
   67.0800018       1.75817405E-07
   67.1999969       5.55009706E-07
   67.3199997       9.07455842E-07
   67.4400024       1.22054598E-06
   67.5599976       1.48412994E-06
   67.6800003       1.69099587E-06
   67.8000031       1.83710017E-06
   67.9199982       1.92154380E-06
   68.0400009       1.94630888E-06
   68.1600037       1.91580079E-06
   68.2799988       1.83624616E-06
   68.4000015       1.71501370E-06
   68.5199966       1.55992461E-06
   68.6399994       1.37861321E-06
   68.7600021       1.17799186E-06
   68.8799973       9.63858838E-07
   69.0000000       7.40670487E-07
   69.1200027       5.11486803E-07
   69.2399979       2.78080421E-07
   69.3600006       4.11887555E-08
   69.4800034      -1.99121928E-07
   69.5999985      -4.43017086E-07
   69.7200012      -6.90422041E-07
   69.8399963      -9.40558266E-07
   69.9599991      -1.19152935E-06
   70.0800018      -1.43999353E-06
   70.1999969      -1.68095562E-06
   70.3199997      -1.90770493E-06
   70.4400024      -2.11191718E-06
   70.5599976      -2.28393060E-06
   70.6800003      -2.41319549E-06
   70.8000031      -2.48888296E-06
   70.9199982      -2.50062908E-06
   71.0400009      -2.43937097E-06
   71.1600037      -2.29822513E-06
   71.2799988      -2.07334097E-06
   71.4000015      -1.76465926E-06
   71.5199966      -1.37650125E-06
   71.6399994      -9.17912985E-07
   71.7600021      -4.02709048E-07
   71.8799973       1.50830189E-07
   72.0000000       7.20625735E-07
   72.1200027       1.28181966E-06
   72.2399979       1.80810275E-06
   72.3600006       2.27327632E-06
   72.4800034       2.65293988E-06
   72.5999985       2.92617938E-06
   72.7200012       3.07712116E-06