  -30.0000000       0.00000000    
  -29.8799992       0.00000000    
  -29.7600002       0.00000000    
  -29.6399994       0.00000000    
  -29.5200005       0.00000000    
  -29.3999996      -7.27273903E-43
  -29.2800007       7.02330790E-42
  -29.1599998       2.52345827E-41
  -29.0400009      -8.97111277E-41
  -28.9200001      -6.46927653E-40
  -28.7999992      -1.15650984E-39
  -28.6800003       1.89821431E-39
  -28.5599995       1.51768037E-38
  -28.4400005       3.82052003E-38
  -28.3199997       3.72130782E-38
  -28.2000008      -7.91406793E-38
  -28.0799999      -4.20022242E-37
  -27.9599991      -9.20489868E-37
  -27.8400002      -9.94015662E-37
  -27.7199993       6.91953290E-37
  -27.6000004       5.64818040E-36
  -27.4799995       1.34760842E-35
  -27.3600006       1.85004257E-35
  -27.2399998       7.64476193E-36
  -27.1200008      -3.54672503E-35
  -27.0000000      -1.15548110E-34
  -26.8799992      -2.01697083E-34
  -26.7600002      -2.09115601E-34
  -26.6399994      -1.32900499E-35
  -26.5200005       4.78532271E-34
  -26.3999996       1.20229626E-33
  -26.2800007       1.81551558E-33
  -26.1599998       1.68776781E-33
  -26.0400009       1.15994649E-34
  -25.9200001      -3.20724266E-33
  -25.7999992      -7.61587288E-33
  -25.6800003      -1.11147377E-32
  -25.5599995      -1.06578267E-32
  -25.4400005      -3.31889332E-33
  -25.3199997       1.18060151E-32
  -25.2000008       3.16858176E-32
  -25.0799999       4.85790291E-32
  -24.9599991       5.15033563E-32
  -24.8400002       3.03432061E-32
  -24.7199993      -1.83107842E-32
  -24.6000004      -8.59108518E-32
  -24.4799995      -1.50389327E-31
  -24.3600006      -1.80796121E-31
  -24.2399998      -1.48404845E-31
  -24.1200008      -4.11909971E-32
  -24.0000000       1.24475483E-31
  -23.8799992       3.01937949E-31
  -23.7600002       4.26397457E-31
  -23.6399994       4.39060259E-31
  -23.5200005       3.13869922E-31
  -23.3999996       7.30202926E-32
  -23.2800007      -2.19971904E-31
  -23.1599998      -4.90196567E-31
  -23.0400009      -6.89882588E-31
  -22.9200001      -8.20212092E-31
  -22.7999992      -9.13505812E-31
  -22.6800003      -9.72991187E-31
  -22.5599995      -8.99492509E-31
  -22.4400005      -4.62006708E-31
  -22.3199997       6.28984552E-31
  -22.2000008       2.52483341E-30
  -22.0799999       4.97182276E-30
  -21.9599991       7.10790551E-30
  -21.8400002       7.49891970E-30
  -21.7199993       4.55000498E-30
  -21.6000004      -2.71050772E-30
  -21.4799995      -1.36846064E-29
  -21.3600006      -2.55041724E-29
  -21.2399998      -3.30722195E-29
  -21.1200008      -3.02260922E-29
  -21.0000000      -1.20534672E-29
  -20.8799992       2.21310009E-29
  -20.7600002       6.61775529E-29
  -20.6399994       1.06214627E-28
  -20.5200005       1.22718944E-28
  -20.3999996       9.60799625E-29
  -20.2800007       1.49596443E-29
  -20.1599998      -1.14753779E-28
  -20.0400009      -2.63870530E-28
  -19.9200001      -3.80597942E-28
  -19.7999992      -4.00936822E-28
  -19.6800003      -2.69097408E-28
  -19.5599995       3.56672716E-29
  -19.4400005       4.73697974E-28
  -19.3199997       9.32025485E-28
  -19.2000008       1.23506787E-27
  -19.0799999       1.18583984E-27
  -18.9599991       6.35609219E-28
  -18.8400002      -4.32466125E-28
  -18.7199993      -1.83272206E-27
  -18.6000004      -3.15416731E-27
  -18.4799995      -3.81785066E-27
  -18.3600006      -3.23035132E-27
  -18.2399998      -1.01848414E-27
  -18.1200008       2.70960894E-27
  -18.0000000       7.16932198E-27
  -17.8799992       1.08816968E-26
  -17.7600002       1.19278427E-26
  -17.6399994       8.50862060E-27
  -17.5200005      -2.63225223E-28
  -17.3999996      -1.35399223E-26
  -17.2800007      -2.81979995E-26
  -17.1599998      -3.89366828E-26
  -17.0400009      -3.92962647E-26
  -16.9200001      -2.36543532E-26
  -16.7999992       1.00967902E-26
  -16.6800003       5.79024644E-26
  -16.5599995       1.07980304E-25
  -16.4400005       1.41495577E-25
  -16.3199997       1.36345388E-25
  -16.2000008       7.41532148E-26
  -16.0799999      -5.06142186E-26
  -15.9600000      -2.21862199E-25
  -15.8400002      -3.96980840E-25
  -15.7200003      -5.09722425E-25
  -15.6000004      -4.83680844E-25
  -15.4799995      -2.56572917E-25
  -15.3599997       1.88520759E-25
  -15.2399998       7.93404350E-25
  -15.1199999       1.40864358E-24
  -15.0000000       1.80411306E-24
  -14.8800001       1.71564684E-24
  -14.7600002       9.28226102E-25
  -14.6400003      -6.17479937E-25
  -14.5200005      -2.72378741E-24
  -14.3999996      -4.88067572E-24
  -14.2799997      -6.30018989E-24
  -14.1599998      -6.07232742E-24
  -14.0400000      -3.44455523E-24
  -13.9200001       1.81782030E-24
  -13.8000002       9.08418850E-24
  -13.6800003       1.66591630E-23
  -13.5600004       2.18780206E-23
  -13.4399996       2.16076607E-23
  -13.3199997       1.31692992E-23
  -13.1999998      -4.44726567E-24
  -13.0799999      -2.93783918E-23
  -12.9600000      -5.61348687E-23
  -12.8400002      -7.58014740E-23
  -12.7200003      -7.75839210E-23
  -12.6000004      -5.18053634E-23
  -12.4799995       6.01924103E-24
  -12.3599997       9.09729479E-23
  -12.2399998       1.85841354E-22
  -12.1199999       2.61217619E-22
  -12.0000000       2.80039790E-22
  -11.8800001       2.07106141E-22
  -11.7600002       2.26061393E-23
  -11.6400003      -2.63188383E-22
  -11.5200005      -5.98718669E-22
  -11.3999996      -8.89083247E-22
  -11.2799997      -1.00830277E-21
  -11.1599998      -8.28541290E-22
  -11.0400000      -2.64250304E-22
  -10.9200001       6.76983011E-22
  -10.8000002       1.85138167E-21
  -10.6800003       2.96245972E-21
  -10.5600004       3.58956844E-21
  -10.4399996       3.27334816E-21
  -10.3199997       1.65600256E-21
  -10.1999998      -1.34548904E-21
  -10.0799999      -5.37679636E-21
  -9.96000004      -9.55498782E-21
  -9.84000015      -1.25138702E-20
  -9.72000027      -1.26358559E-20
  -9.60000038      -8.48087037E-21
  -9.47999954       6.38609636E-22
  -9.35999966       1.40605098E-20
  -9.23999977       2.93441676E-20
  -9.11999989       4.22328694E-20
  -9.00000000       4.72061410E-20
  -8.88000011       3.87173356E-20
  -8.76000023       1.30300713E-20
  -8.64000034      -2.96709395E-20
  -8.52000046      -8.34608436E-20
  -8.39999962      -1.35882316E-19
  -8.27999973      -1.68921616E-19
  -8.15999985      -1.62264363E-19
  -8.03999996      -9.88396046E-20
  -7.92000008       2.80744518E-20
  -7.80000019       2.07749112E-19
  -7.67999983       4.07196019E-19
  -7.55999994       5.71258479E-19
  -7.44000006       6.29849543E-19
  -7.32000017       5.13344101E-19
  -7.19999981       1.75012560E-19
  -7.07999992      -3.83344706E-19
  -6.96000004      -1.08916277E-18
  -6.84000015      -1.78881943E-18
  -6.71999979      -2.25798594E-18
  -6.59999990      -2.23885366E-18
  -6.48000002      -1.50497737E-18
  -6.36000013       5.37142526E-20
  -6.23999977       2.34273349E-18
  -6.11999989       4.99728387E-18
  -6.00000000       7.36920897E-18
  -5.88000011       8.59445123E-18
  -5.76000023       7.75690522E-18
  -5.63999987       4.14263300E-18
  -5.51999998      -2.45144032E-18
  -5.40000010      -1.14223204E-17
  -5.28000021      -2.11733140E-17
  -5.15999985      -2.91376654E-17
  -5.03999996      -3.21003980E-17
  -4.92000008      -2.68559803E-17
  -4.80000019      -1.11575382E-17
  -4.67999983       1.51907666E-17
  -4.55999994       4.93525037E-17
  -4.44000006       8.49215910E-17
  -4.32000017       1.12177497E-16
  -4.19999981       1.19405705E-16
  -4.07999992       9.53698615E-17
  -3.96000004       3.27333169E-17
  -3.83999991      -6.81267210E-17
  -3.72000003      -1.95815647E-16
  -3.59999990      -3.26272671E-16
  -3.48000002      -4.23944755E-16
  -3.35999990      -4.46663714E-16
  -3.24000001      -3.54456739E-16
  -3.11999989      -1.21541353E-16
  -3.00000000       2.50425159E-16
  -2.88000011       7.20915406E-16
  -2.75999999       1.20477594E-15
  -2.64000010       1.57607039E-15
  -2.51999998       1.68449665E-15
  -2.40000010       1.38522858E-15
  -2.27999997       5.79832169E-16
  -2.16000009      -7.37963744E-16
  -2.03999996      -2.44164764E-15
  -1.91999996      -4.24915010E-15
  -1.79999995      -5.73108210E-15
  -1.67999995      -6.36042927E-15
  -1.55999994      -5.60768422E-15
  -1.44000006      -3.07542522E-15
  -1.32000005       1.34599105E-15
  -1.20000005       7.33242711E-15
  -1.08000004       1.40300250E-14
 -0.959999979       2.00529138E-14
 -0.839999974       2.36118328E-14
 -0.720000029       2.27930806E-14
 -0.600000024       1.59780280E-14
 -0.479999989       2.35552028E-15
 -0.360000014      -1.75606938E-14
 -0.239999995      -4.15316653E-14
 -0.119999997      -6.54498835E-14
  -1.11022302E-15  -8.35837611E-14
  0.119999997      -8.92979470E-14
  0.239999995      -7.62586066E-14
  0.360000014      -4.00235841E-14
  0.479999989       2.02077429E-14
  0.600000024       1.00027537E-13
  0.720000029       1.88858789E-13
  0.839999974       2.70037194E-13
  0.959999979       3.22291212E-13
   1.08000004       3.22787559E-13
   1.20000005       2.51620475E-13
   1.32000005       9.72625978E-14
   1.44000006      -1.37879996E-13
   1.55999994      -4.32980285E-13
   1.67999995      -7.46703914E-13
   1.79999995      -1.01879030E-12
   1.91999996      -1.17620128E-12
   2.03999996      -1.14407052E-12
   2.16000009      -8.60747292E-13
   2.27999997      -2.95149701E-13
   2.40000010       5.36414771E-13
   2.51999998       1.55759325E-12
   2.64000010       2.62742172E-12
   2.75999999       3.54735555E-12
   2.88000011       4.08214391E-12
   3.00000000       3.99470387E-12
   3.11999989       3.09239873E-12
   3.24000001       1.27909358E-12
   3.35999990      -1.39548464E-12
   3.48000002      -4.69950207E-12
   3.59999990      -8.20684406E-12
   3.72000003      -1.13184783E-11
   3.83999991      -1.33231117E-11
   3.96000004      -1.34970368E-11
   4.07999992      -1.12356149E-11
   4.19999981      -6.20077861E-12
   4.32000017       1.53838444E-12
   4.44000006       1.13999114E-11
   4.55999994       2.22471468E-11
   4.67999983       3.24359845E-11
   4.80000019       3.99666862E-11
   4.92000008       4.27409705E-11
   5.03999996       3.89062220E-11
   5.15999985       2.72483650E-11
   5.28000021       7.57651147E-12
   5.40000010      -1.89705213E-11
   5.51999998      -4.97692790E-11
   5.63999987      -8.07735545E-11
   5.76000023      -1.06836380E-10
   5.88000011      -1.22300906E-10
   6.00000000      -1.21824731E-10
   6.11999989      -1.01353800E-10
   6.23999977      -5.91169683E-11
   6.36000013       3.52147391E-12
   6.48000002       8.15272710E-11
   6.59999990       1.66142350E-10
   6.71999979       2.45431453E-10
   6.84000015       3.05475645E-10
   6.96000004       3.32162881E-10
   7.07999992       3.13417431E-10
   7.19999981       2.41602377E-10
   7.32000017       1.15745032E-10
   7.44000006      -5.68117740E-11
   7.55999994      -2.59722938E-10
   7.67999983      -4.68235895E-10
   7.80000019      -6.51248055E-10
   7.92000008      -7.74812825E-10
   8.03999996      -8.06848754E-10
   8.15999985      -7.22567561E-10
   8.27999973      -5.09921938E-10
   8.39999962      -1.74231157E-10
   8.52000046       2.58907312E-10
   8.64000034       7.43225037E-10
   8.76000023       1.21449684E-09
   8.88000011       1.59659308E-09
   9.00000000       1.81064419E-09
   9.11999989       1.78658044E-09
   9.23999977       1.47580426E-09
   9.35999966       8.63335237E-10
   9.47999954      -2.24843599E-11
   9.60000038      -1.10466736E-09
   9.72000027      -2.25833774E-09
   9.84000015      -3.31872974E-09
   9.96000004      -4.09679046E-09
   10.0799999      -4.40175807E-09
   10.1999998      -4.06898293E-09
   10.3199997      -2.99018454E-09
   10.4399996      -1.14246834E-09
   10.5600004       1.38815992E-09
   10.6800003       4.39313297E-09
   10.8000002       7.54143237E-09
   10.9200001       1.03963691E-08
   11.0400000       1.24503412E-08
   11.1599998       1.31768747E-08
   11.2799997       1.20969217E-08
   11.3999996       8.85408191E-09
   11.5200005       3.29125438E-09
   11.6400003      -4.48034143E-09
   11.7600002      -1.40296876E-08
   11.8800001      -2.45817624E-08
   12.0000000      -3.50290463E-08
   12.1199999      -4.39847092E-08
   12.2399998      -4.98799295E-08
   12.3599997      -5.11034202E-08
   12.4799995      -4.61763037E-08
   12.6000004      -3.39505704E-08
   12.7200003      -1.38147200E-08
   12.8400002       1.41134189E-08
   12.9600000       4.88289480E-08
   13.0799999       8.83399025E-08
   13.1999998       1.29645969E-07
   13.3199997       1.68812988E-07
   13.4399996       2.01154322E-07
   13.5600004       2.21522384E-07
   13.6800003       2.24703967E-07
   13.8000002       2.05903717E-07
   13.9200001       1.61289776E-07
   14.0400000       8.85667504E-08
   14.1599998      -1.24658230E-08
   14.2799997      -1.39415732E-07
   14.3999996      -2.86909113E-07
   14.5200005      -4.46355244E-07
   14.6400003      -6.05904518E-07
   14.7600002      -7.50628772E-07
   14.8800001      -8.62940226E-07
   15.0000000      -9.23250468E-07
   15.1199999      -9.10852123E-07
   15.2399998      -8.04991544E-07
   15.3599997      -5.86081683E-07
   15.4799995      -2.36992989E-07
   15.6000004       2.55653134E-07
   15.7200003       9.00266173E-07
   15.8400002       1.69922475E-06
   15.9600000       2.64804862E-06
   16.0799999       3.73486751E-06
   16.2000008       4.94024289E-06
   16.3199997       6.23736832E-06
   16.4400005       7.59266504E-06
   16.5599995       8.96676192E-06
   16.6800003       1.03158118E-05
   16.7999992       1.15931089E-05
   16.9200001       1.27509156E-05
   17.0400009       1.37424158E-05
   17.1599998       1.45237009E-05
   17.2800007       1.50556907E-05
   17.3999996       1.53058863E-05
   17.5200005       1.52498760E-05
   17.6399994       1.48725067E-05
   17.7600002       1.41686887E-05
   17.8799992       1.31437755E-05
   18.0000000       1.18135194E-05
   18.1200008       1.02035992E-05
   18.2399998       8.34876391E-06
   18.3600006       6.29162378E-06
   18.4799995       4.08115193E-06
   18.6000004       1.77098048E-06
   18.7199993      -5.82446376E-07
   18.8400002      -2.92177538E-06
   18.9599991      -5.19062723E-06
   19.0799999      -7.33538718E-06
   19.2000008      -9.30684200E-06
   19.3199997      -1.10616074E-05
   19.4400005      -1.25633060E-05
   19.5599995      -1.37834750E-05
   19.6800003      -1.47021719E-05
   19.7999992      -1.53082838E-05
   19.9200001      -1.55995531E-05
   20.0400009      -1.55823254E-05
   20.1599998      -1.52710363E-05
   20.2800007      -1.46874963E-05
   20.3999996      -1.38599662E-05
   20.5200005      -1.28220981E-05
   20.6399994      -1.16117581E-05
   20.7600002      -1.02697750E-05
   20.8799992      -8.83866051E-06
   21.0000000      -7.36132961E-06
   21.1200008      -5.87986096E-06
   21.2399998      -4.43432964E-06
   21.3600006      -3.06173979E-06
   21.4799995      -1.79508436E-06
   21.6000004      -6.62547166E-07
   21.7199993       3.13131437E-07
   21.8400002       1.11511838E-06
   21.9599991       1.73277374E-06
   22.0799999       2.16175613E-06
   22.2000008       2.40394979E-06
   22.3199997       2.46721834E-06
   22.4400005       2.36499272E-06
   22.5599995       2.11570136E-06
   22.6800003       1.74205991E-06
   22.7999992       1.27023009E-06
   22.9200001       7.28867803E-07
   23.0400009       1.48083231E-07
   23.1599998      -4.41664042E-07
   23.2800007      -1.01070316E-06
   23.3999996      -1.53128894E-06
   23.5200005      -1.97869690E-06
   23.6399994      -2.33223477E-06
   23.7600002      -2.57611896E-06
   23.8799992      -2.70017495E-06
   24.0000000      -2.70031205E-06
   24.1200008      -2.57873739E-06
   24.2399998      -2.34387926E-06
   24.3600006      -2.01000307E-06
   24.4799995      -1.59652495E-06
   24.6000004      -1.12703731E-06
   24.7199993      -6.28085502E-07
   24.8400002      -1.27753665E-07
   24.9599991       3.45872508E-07
   25.0799999       7.66278220E-07
   25.2000008       1.11003840E-06
   25.3199997       1.35818868E-06
   25.4400005       1.49736104E-06
   25.5599995       1.52060625E-06
   25.6800003       1.42784643E-06
   25.7999992       1.22591553E-06
   25.9200001       9.28180327E-07
   26.0400009       5.53755285E-07
   26.1599998       1.26354394E-07
   26.2800007      -3.27150758E-07
   26.3999996      -7.78378876E-07
   26.5200005      -1.19918730E-06
   26.6399994      -1.56340730E-06
   26.7600002      -1.84845442E-06
   26.8799992      -2.03670470E-06
   27.0000000      -2.11654765E-06
   27.1200008      -2.08304618E-06
   27.2399998      -1.93816072E-06
   27.3600006      -1.69052794E-06
   27.4799995      -1.35481207E-06
   27.6000004      -9.50680430E-07
   27.7199993      -5.01479064E-07
   27.8400002      -3.27058061E-08
   27.9599991       4.29610395E-07
   28.0799999       8.60510454E-07
   28.2000008       1.23757729E-06
   28.3199997       1.54218446E-06
   28.4400005       1.76044489E-06
   28.5599995       1.88381091E-06
   28.6800003       1.90930405E-06
   28.7999992       1.83938403E-06
   28.9200001       1.68148904E-06
   29.0400009       1.44730814E-06
   29.1599998       1.15185651E-06
   29.2800007       8.12435417E-07
   29.3999996       4.47562854E-07
   29.5200005       7.59458416E-08
   29.6399994      -2.84438499E-07
   29.7600002      -6.17109492E-07
   29.8799992      -9.07670028E-07
   30.0000000      -1.14420857E-06
   30.1200008      -1.31752699E-06
   30.2399998      -1.42121905E-06
   30.3600006      -1.45163472E-06
   30.4799995      -1.40776569E-06
   30.6000004      -1.29108957E-06
   30.7199993      -1.10539781E-06
   30.8400002      -8.56626741E-07
   30.9599991      -5.52695724E-07
   31.0799999      -2.03348435E-07
   31.2000008       1.80022099E-07
   31.3199997       5.84582949E-07
   31.4400005       9.96330868E-07
   31.5599995       1.40044131E-06
   31.6800003       1.78170933E-06
   31.7999992       2.12508166E-06
   31.9200001       2.41627095E-06
   32.0400009       2.64242067E-06
   32.1599998       2.79278447E-06
   32.2799988       2.85937335E-06
   32.4000015       2.83751433E-06
   32.5200005       2.72627040E-06
   32.6399994       2.52867812E-06
   32.7599983       2.25176427E-06
   32.8800011       1.90632761E-06
   33.0000000       1.50648555E-06
   33.1199989       1.06900097E-06
   33.2400017       6.12432359E-07
   33.3600006       1.56154371E-07
   33.4799995      -2.80684276E-07
   33.5999985      -6.80198298E-07
   33.7200012      -1.02673005E-06
   33.8400002      -1.30767444E-06
   33.9599991      -1.51411427E-06
   34.0800018      -1.64122127E-06
   34.2000008      -1.68840359E-06
   34.3199997      -1.65919062E-06
   34.4399986      -1.56086890E-06
   34.5600014      -1.40389432E-06
   34.6800003      -1.20112566E-06
   34.7999992      -9.66930543E-07
   34.9199982      -7.16226907E-07
   35.0400009      -4.63522724E-07
   35.1599998      -2.22019409E-07
   35.2799988      -2.83802115E-09
   35.4000015       1.85581214E-07
   35.5200005       3.37867505E-07
   35.6399994       4.51872836E-07
   35.7599983       5.28583541E-07
   35.8800011       5.71801138E-07
   36.0000000       5.87620320E-07
   36.1199989       5.83748090E-07
   36.2400017       5.68718519E-07
   36.3600006       5.51066819E-07
   36.4799995       5.38530173E-07
   36.5999985       5.37337826E-07
   36.7200012       5.51649407E-07
   36.8400002       5.83185113E-07
   36.9599991       6.31077114E-07
   37.0800018       6.91952550E-07
   37.2000008       7.60238663E-07
   37.3199997       8.28662394E-07
   37.4399986       8.88899933E-07
   37.5600014       9.32317960E-07
   37.6800003       9.50744550E-07
   37.7999992       9.37199786E-07
   37.9199982       8.86524958E-07
   38.0400009       7.95857147E-07
   38.1599998       6.64907816E-07
   38.2799988       4.96025564E-07
   38.4000015       2.94038841E-07
   38.5200005       6.58958115E-08
   38.6399994      -1.79861757E-07
   38.7599983      -4.33742201E-07
   38.8800011      -6.86002522E-07
   39.0000000      -9.27336600E-07
   39.1199989      -1.14948818E-06
   39.2400017      -1.34573122E-06
   39.3600006      -1.51117433E-06
   39.4799995      -1.64286382E-06
   39.5999985      -1.73968090E-06
   39.7200012      -1.80205063E-06
   39.8400002      -1.83150337E-06
   39.9599991      -1.83014231E-06
   40.0800018      -1.80008726E-06
   40.2000008      -1.74296633E-06
   40.3199997      -1.65952497E-06
   40.4399986      -1.54940960E-06
   40.5600014      -1.41116493E-06
   40.6800003      -1.24245844E-06
   40.7999992      -1.04052253E-06
   40.9199982      -8.02770955E-07
   41.0400009      -5.27526936E-07
   41.1599998      -2.14782801E-07
   41.2799988       1.33104194E-07
   41.4000015       5.10869313E-07
   41.5200005       9.10033634E-07
   41.6399994       1.31889362E-06
   41.7599983       1.72284217E-06
   41.8800011       2.10501889E-06
   42.0000000       2.44725766E-06
   42.1199989       2.73126375E-06
   42.2400017       2.93992775E-06
   42.3600006       3.05866251E-06
   42.4799995       3.07664641E-06
   42.5999985       2.98785790E-06
   42.7200012       2.79179994E-06
   42.8400002       2.49384061E-06
   42.9599991       2.10513190E-06
   43.0800018       1.64209200E-06
   43.2000008       1.12549537E-06
   43.3199997       5.79224832E-07
   43.4399986       2.87873068E-08
   43.5600014      -5.00297745E-07
   43.6800003      -9.84111807E-07
   43.7999992      -1.40183397E-06
   43.9199982      -1.73700710E-06
   44.0400009      -1.97848840E-06
   44.1599998      -2.12101759E-06
   44.2799988      -2.16537251E-06
   44.4000015      -2.11811039E-06
   44.5200005      -1.99092665E-06
   44.6399994      -1.79968310E-06
   44.7599983      -1.56318447E-06
   44.8800011      -1.30179251E-06
   45.0000000      -1.03597461E-06
   45.1199989      -7.84884776E-07
   45.2400017      -5.65069740E-07
   45.3600006      -3.89381654E-07
   45.4799995      -2.66164704E-07
   45.5999985      -1.98765107E-07
   45.7200012      -1.85394384E-07
   45.8400002      -2.19352927E-07
   45.9599991      -2.89601417E-07
   46.0800018      -3.81644071E-07
   46.2000008      -4.78668596E-07
   46.3199997      -5.62870184E-07
   46.4399986      -6.16872740E-07
   46.5600014      -6.25151358E-07
   46.6800003      -5.75356069E-07
   46.7999992      -4.59441253E-07
   46.9199982      -2.74513013E-07
   47.0400009      -2.33248052E-08
   47.1599998       2.85627124E-07
   47.2799988       6.38430549E-07
   47.4000015       1.01649766E-06
   47.5200005       1.39768122E-06
   47.6399994       1.75769958E-06
   47.7599983       2.07177868E-06
   47.8800011       2.31640001E-06
   48.0000000       2.47102912E-06
   48.1199989       2.51970141E-06
   48.2400017       2.45234128E-06
   48.3600006       2.26570955E-06
   48.4799995       1.96389738E-06
   48.5999985       1.55831742E-06
   48.7200012       1.06717562E-06
   48.8400002       5.14449255E-07
   48.9599991      -7.15663191E-08
   49.0800018      -6.60041849E-07
   49.2000008      -1.21960511E-06
   49.3199997      -1.72039188E-06
   49.4399986      -2.13600356E-06
   49.5600014      -2.44522334E-06
   49.6800003      -2.63336119E-06
   49.7999992      -2.69312341E-06
   49.9199982      -2.62494268E-06
   50.0400009      -2.43675254E-06
   50.1599998      -2.14322449E-06
   50.2799988      -1.76454694E-06
   50.4000015      -1.32484365E-06
   50.5200005      -8.50374875E-07
   50.6399994      -3.67668235E-07
   50.7599983       9.82661277E-08
   50.8800011       5.25495921E-07
   51.0000000       8.96385131E-07
   51.1199989       1.19839046E-06
   51.2400017       1.42439410E-06
   51.3600006       1.57257932E-06
   51.4799995       1.64589164E-06
   51.5999985       1.65117285E-06
   51.7200012       1.59807200E-06
   51.8400002       1.49786206E-06
   51.9599991       1.36228039E-06
   52.0800018       1.20251138E-06
   52.2000008       1.02839272E-06
   52.3199997       8.47904346E-07
   52.4399986       6.66956112E-07
   52.5600014       4.89456625E-07
   52.6800003       3.17611466E-07
   52.7999992       1.52377950E-07
   52.9199982      -6.01039263E-09
   53.0400009      -1.57533009E-07
   53.1599998      -3.01959517E-07
   53.2799988      -4.38564825E-07
   53.4000015      -5.66006634E-07
   53.5200005      -6.82360621E-07
   53.6399994      -7.85283532E-07
   53.7599983      -8.72257999E-07
   53.8800011      -9.40861185E-07
   54.0000000      -9.89005457E-07
   54.1199989      -1.01510841E-06
   54.2400017      -1.01817147E-06
   54.3600006      -9.97765369E-07
   54.4799995      -9.53946937E-07
   54.5999985      -8.87145688E-07
   54.7200012      -7.98069323E-07
   54.8400002      -6.87671843E-07
   54.9599991      -5.57219437E-07
   55.0800018      -4.08464047E-07
   55.2000008      -2.43908659E-07
   55.3199997      -6.71194798E-08
   55.4399986       1.16982143E-07
   55.5600014       3.01930584E-07
   55.6800003       4.79711673E-07
   55.7999992       6.41009933E-07
   55.9199982       7.75747026E-07
   56.0400009       8.73906743E-07
   56.1599998       9.26595987E-07
   56.2799988       9.27242866E-07
   56.4000015       8.72793009E-07
   56.5200005       7.64739411E-07
   56.6399994       6.09816198E-07
   56.7599983       4.20205055E-07
   56.8800011       2.13145540E-07
   57.0000000       9.90217419E-09
   57.1199989      -1.65881602E-07
   57.2400017      -2.90331883E-07
   57.3600006      -3.41808089E-07
   57.4799995      -3.03436110E-07
   57.5999985      -1.65429924E-07
   57.7200012       7.30811323E-08
   57.8400002       4.02970443E-07
   57.9599991       8.04964088E-07
   58.0800018       1.25051611E-06
   58.2000008       1.70369685E-06
   58.3199997       2.12396526E-06
   58.4399986       2.46959326E-06
   58.5600014       2.70142777E-06
   58.6800003       2.78662878E-06
   58.7999992       2.70199735E-06
   58.9199982       2.43655768E-06
   59.0400009       1.99310853E-06
   59.1599998       1.38856728E-06
   59.2799988       6.53053462E-07
   59.4000015      -1.72223437E-07
   59.5200005      -1.03807383E-06
   59.6399994      -1.89114871E-06
   59.7599983      -2.67811060E-06
   59.8800011      -3.34976335E-06
   60.0000000      -3.86476586E-06
   60.1199989      -4.19260414E-06
   60.2400017      -4.31557328E-06
   60.3600006      -4.22964331E-06
   60.4799995      -3.94417657E-06
   60.5999985      -3.48059871E-06
   60.7200012      -2.87020612E-06
   60.8400002      -2.15137288E-06
   60.9599991      -1.36645110E-06
   61.0800018      -5.58667978E-07
   61.2000008       2.30712914E-07
   61.3199997       9.64751848E-07
   61.4399986       1.61257742E-06
   61.5600014       2.15045907E-06
   61.6800003       2.56223097E-06
   61.7999992       2.83915278E-06
   61.9199982       2.97934184E-06
   62.0400009       2.98692589E-06
   62.1599998       2.87106377E-06
   62.2799988       2.64495998E-06
   62.4000015       2.32495654E-06
   62.5200005       1.92973835E-06
   62.6399994       1.47965739E-06
   62.7599983       9.96129074E-07
   62.8800011       5.01053307E-07
   63.0000000       1.61931055E-08
   63.1199989      -4.37528882E-07
   63.2400017      -8.40840414E-07
   63.3600006      -1.17701882E-06
   63.4799995      -1.43283251E-06
   63.5999985      -1.59944136E-06
   63.7200012      -1.67315670E-06
   63.8400002      -1.65595236E-06
   63.9599991      -1.55562668E-06
   64.0800018      -1.38554253E-06
   64.1999969      -1.16390652E-06
   64.3199997      -9.12596704E-07
   64.4400024      -6.55595557E-07
   64.5599976      -4.17132924E-07
   64.6800003      -2.19683741E-07
   64.8000031      -8.19912458E-08
   64.9199982      -1.72996764E-08
   65.0400009      -3.19734177E-08
   65.1600037      -1.24655955E-07
   65.2799988      -2.86079995E-07
   65.4000015      -4.99584814E-07
   65.5199966      -7.42332816E-07
   65.6399994      -9.87148383E-07
   65.7600021      -1.20483844E-06
   65.8799973      -1.36679978E-06
   66.0000000      -1.44768148E-06
   66.1200027      -1.42785632E-06
   66.2399979      -1.29546277E-06
   66.3600006      -1.04781554E-06
   66.4800034      -6.92034462E-07
   66.5999985      -2.44816619E-07
   66.7200012       2.68645437E-07
   66.8399963       8.16514103E-07
   66.9599991       1.36276640E-06
   67.0800018       1.87004855E-06
   67.1999969       2.30266824E-06
   67.3199997       2.62946605E-06
   67.4400024       2.82631004E-06
   67.5599976       2.87800344E-06
   67.6800003       2.77944582E-06
   67.8000031       2.53596772E-06
   67.9199982       2.16281751E-06
   68.0400009       1.68387180E-06
   68.1600037       1.12969030E-06
   68.2799988       5.35097513E-07
   68.4000015      -6.34981561E-08
   68.5199966      -6.30819500E-07
   68.6399994      -1.13524868E-06
   68.7600021      -1.55097007E-06
   68.8799973      -1.85956992E-06
   69.0000000      -2.05098354E-06
   69.1200027      -2.12374289E-06
   69.2399979      -2.08453321E-06
   69.3600006      -1.94713061E-06
   69.4800034      -1.73083538E-06
   69.5999985      -1.45855813E-06
   69.7200012      -1.15473620E-06
   69.8399963      -8.43263081E-07
   69.9599991      -5.45602404E-07
   70.0800018      -2.79234683E-07
   70.1999969      -5.65490339E-08
   70.3199997       1.15751909E-07
   70.4400024       2.36710960E-07
   70.5599976       3.10661250E-07
   70.6800003       3.46319439E-07
   70.8000031       3.55522644E-07
   70.9199982       3.51729909E-07
   71.0400009       3.48422702E-07
   71.1600037       3.57544650E-07
   71.2799988       3.88113762E-07
   71.4000015       4.45126858E-07
   71.5199966       5.28851558E-07
   71.6399994       6.34571563E-07
   71.7600021       7.52815424E-07
   71.8799973       8.70060319E-07
   72.0000000       9.69864800E-07
   72.1200027       1.03434638E-06
   72.2399979       1.04588946E-06
   72.3600006       9.88945203E-07
   72.4800034       8.51770437E-07
   72.5999985       6.27952261E-07
   72.7200012       3.17572301E-07