  -30.0000000       0.00000000    
  -29.8799992       0.00000000    
  -29.7600002       0.00000000    
  -29.6399994       0.00000000    
  -29.5200005       0.00000000    
  -29.3999996       0.00000000    
  -29.2800007       0.00000000    
  -29.1599998       0.00000000    
  -29.0400009       0.00000000    
  -28.9200001       0.00000000    
  -28.7999992       1.12103877E-44
  -28.6800003      -2.04405431E-38
  -28.5599995      -2.50080118E-37
  -28.4400005      -1.46722146E-36
  -28.3199997      -5.86875492E-36
  -28.2000008      -2.19771454E-35
  -28.0799999      -9.65942853E-35
  -27.9599991      -4.31975302E-34
  -27.8400002      -1.58547445E-33
  -27.7199993      -4.22132291E-33
  -27.6000004      -6.43535329E-33
  -27.4799995       5.00810442E-33
  -27.3600006       7.08390688E-32
  -27.2399998       2.68909285E-31
  -27.1200008       6.68816836E-31
  -27.0000000       1.14692692E-30
  -26.8799992       1.00941853E-30
  -26.7600002      -1.40991388E-30
  -26.6399994      -8.53666341E-30
  -26.5200005      -2.15667727E-29
  -26.3999996      -3.56945988E-29
  -26.2800007      -3.35296338E-29
  -26.1599998       1.77948389E-29
  -26.0400009       1.54661347E-28
  -25.9200001       3.77581960E-28
  -25.7999992       5.83617873E-28
  -25.6800003       5.02308481E-28
  -25.5599995      -2.85038619E-28
  -25.4400005      -2.12896822E-27
  -25.3199997      -4.82288180E-27
  -25.2000008      -6.93972956E-27
  -25.0799999      -5.41453595E-27
  -24.9599991       3.85503883E-27
  -24.8400002       2.35371612E-26
  -24.7199993       5.02922924E-26
  -24.6000004       6.95145462E-26
  -24.4799995       5.32667479E-26
  -24.3600006      -3.26352219E-26
  -24.2399998      -2.07038098E-25
  -24.1200008      -4.37973800E-25
  -24.0000000      -6.06374501E-25
  -23.8799992      -4.98036387E-25
  -23.7600002       1.36992414E-25
  -23.6399994       1.42890971E-24
  -23.5200005       3.15273073E-24
  -23.3999996       4.50885086E-24
  -23.2800007       4.10331285E-24
  -23.1599998       3.47142062E-25
  -23.0400009      -7.60093120E-24
  -22.9200001      -1.85030970E-23
  -22.7999992      -2.79034333E-23
  -22.6800003      -2.81553860E-23
  -22.5599995      -1.06351009E-23
  -22.4400005       2.94719791E-23
  -22.3199997       8.68481331E-23
  -22.2000008       1.41080427E-22
  -22.0799999       1.57307435E-22
  -21.9599991       9.62777282E-23
  -21.8400002      -6.56297374E-23
  -21.7199993      -3.11724130E-22
  -21.6000004      -5.67330689E-22
  -21.4799995      -7.03896522E-22
  -21.3600006      -5.75495614E-22
  -21.2399998      -8.53574068E-23
  -21.1200008       7.38539203E-22
  -21.0000000       1.69520731E-21
  -20.8799992       2.42723428E-21
  -20.7600002       2.51901700E-21
  -20.6399994       1.65453803E-21
  -20.5200005      -2.27086372E-22
  -20.3999996      -2.85413359E-21
  -20.2800007      -5.66744049E-21
  -20.1599998      -7.96089365E-21
  -20.0400009      -9.01685513E-21
  -19.9200001      -8.12457363E-21
  -19.7999992      -4.46715457E-21
  -19.6800003       2.94628143E-21
  -19.5599995       1.49538099E-20
  -19.4400005       3.11979084E-20
  -19.3199997       4.84265296E-20
  -19.2000008       5.89140844E-20
  -19.0799999       5.05194194E-20
  -18.9599991       1.00922804E-20
  -18.8400002      -6.90088286E-20
  -18.7199993      -1.76822419E-19
  -18.6000004      -2.78688186E-19
  -18.4799995      -3.15964977E-19
  -18.3600006      -2.21763814E-19
  -18.2399998       4.70974669E-20
  -18.1200008       4.69777894E-19
  -18.0000000       9.30676830E-19
  -17.8799992       1.22181701E-18
  -17.7600002       1.09704353E-18
  -17.6399994       3.78380562E-19
  -17.5200005      -9.13827472E-19
  -17.3999996      -2.46365923E-18
  -17.2800007      -3.66376326E-18
  -17.1599998      -3.77012876E-18
  -17.0400009      -2.20166114E-18
  -16.9200001       1.09909670E-18
  -16.7999992       5.39754127E-18
  -16.6800003       9.16572202E-18
  -16.5599995       1.04641913E-17
  -16.4400005       7.68095101E-18
  -16.3199997       4.14810475E-19
  -16.2000008      -9.86373259E-18
  -16.0799999      -1.97733141E-17
  -15.9600000      -2.48526117E-17
  -15.8400002      -2.11842361E-17
  -15.7200003      -7.33238620E-18
  -15.6000004       1.41937013E-17
  -15.4799995       3.67753416E-17
  -15.3599997       5.13015960E-17
  -15.2399998       4.93772331E-17
  -15.1199999       2.71431443E-17
  -15.0000000      -1.18303098E-17
  -14.8800001      -5.61218157E-17
  -14.7600002      -8.93461205E-17
  -14.6400003      -9.59022680E-17
  -14.5200005      -6.77236921E-17
  -14.3999996      -9.26081718E-18
  -14.2799997       6.19284714E-17
  -14.1599998       1.20208189E-16
  -14.0400000       1.41438607E-16
  -13.9200001       1.13681271E-16
  -13.8000002       4.43374532E-17
  -13.6800003      -4.03362549E-17
  -13.5600004      -1.04674307E-16
  -13.4399996      -1.19351283E-16
  -13.3199997      -7.71152626E-17
  -13.1999998      -7.06270123E-19
  -13.0799999       6.28822172E-17
  -12.9600000       6.23411088E-17
  -12.8400002      -3.01919170E-17
  -12.7200003      -1.95513720E-16
  -12.6000004      -3.61072146E-16
  -12.4799995      -4.20348041E-16
  -12.3599997      -2.76045152E-16
  -12.2399998       1.06799089E-16
  -12.1199999       6.60304799E-16
  -12.0000000       1.20868288E-15
  -11.8800001       1.51121414E-15
  -11.7600002       1.34722750E-15
  -11.6400003       6.16525530E-16
  -11.5200005      -5.84743160E-16
  -11.3999996      -1.95141208E-15
  -11.2799997      -3.03968806E-15
  -11.1599998      -3.40887499E-15
  -11.0400000      -2.78977586E-15
  -10.9200001      -1.21525670E-15
  -10.8000002       9.47063515E-16
  -10.6800003       3.08854576E-15
  -10.5600004       4.55901169E-15
  -10.4399996       4.90298372E-15
  -10.3199997       4.03816901E-15
  -10.1999998       2.29407333E-15
  -10.0799999       2.79721831E-16
  -9.96000004      -1.37783313E-15
  -9.84000015      -2.31759522E-15
  -9.72000027      -2.61904895E-15
  -9.60000038      -2.76649706E-15
  -9.47999954      -3.38746030E-15
  -9.35999966      -4.85651761E-15
  -9.23999977      -6.93991077E-15
  -9.11999989      -8.67370293E-15
  -9.00000000      -8.59839323E-15
  -8.88000011      -5.33159129E-15
  -8.76000023       1.70217475E-15
  -8.64000034       1.16796018E-14
  -8.52000046       2.22260293E-14
  -8.39999962       2.98791516E-14
  -8.27999973       3.11216134E-14
  -8.15999985       2.36891619E-14
  -8.03999996       7.69335377E-15
  -7.92000008      -1.39101318E-14
  -7.80000019      -3.57977232E-14
  -7.67999983      -5.16703718E-14
  -7.55999994      -5.61840240E-14
  -7.44000006      -4.67936406E-14
  -7.32000017      -2.48502374E-14
  -7.19999981       4.50121651E-15
  -7.07999992       3.36804898E-14
  -6.96000004       5.49002236E-14
  -6.84000015       6.25462139E-14
  -6.71999979       5.49084128E-14
  -6.59999990       3.46661956E-14
  -6.48000002       7.96076716E-15
  -6.36000013      -1.76135419E-14
  -6.23999977      -3.53849267E-14
  -6.11999989      -4.15148059E-14
  -6.00000000      -3.58087651E-14
  -5.88000011      -2.12314924E-14
  -5.76000023      -2.44209954E-15
  -5.63999987       1.59552666E-14
  -5.51999998       3.06636057E-14
  -5.40000010       3.99240780E-14
  -5.28000021       4.27121175E-14
  -5.15999985       3.74461340E-14
  -5.03999996       2.11179425E-14
  -4.92000008      -1.02781671E-14
  -4.80000019      -5.96232319E-14
  -4.67999983      -1.25274086E-13
  -4.55999994      -1.97648985E-13
  -4.44000006      -2.57577434E-13
  -4.32000017      -2.78075767E-13
  -4.19999981      -2.30335174E-13
  -4.07999992      -9.32345902E-14
  -3.96000004       1.35936320E-13
  -3.83999991       4.33057155E-13
  -3.72000003       7.44754464E-13
  -3.59999990       9.94551772E-13
  -3.48000002       1.09786247E-12
  -3.35999990       9.83202994E-13
  -3.24000001       6.14460035E-13
  -3.11999989       7.80839864E-15
  -3.00000000      -7.62418232E-13
  -2.88000011      -1.57193898E-12
  -2.75999999      -2.26791546E-12
  -2.64000010      -2.69867895E-12
  -2.51999998      -2.74435357E-12
  -2.40000010      -2.34070098E-12
  -2.27999997      -1.49081084E-12
  -2.16000009      -2.63322486E-13
  -2.03999996       1.21984616E-12
  -1.91999996       2.80041853E-12
  -1.79999995       4.29928142E-12
  -1.67999995       5.52713647E-12
  -1.55999994       6.29112431E-12
  -1.44000006       6.40236432E-12
  -1.32000005       5.69119144E-12
  -1.20000005       4.03509387E-12
  -1.08000004       1.39905416E-12
 -0.959999979      -2.11912150E-12
 -0.839999974      -6.25220882E-12
 -0.720000029      -1.05519647E-11
 -0.600000024      -1.44158080E-11
 -0.479999989      -1.71565886E-11
 -0.360000014      -1.81084349E-11
 -0.239999995      -1.67500701E-11
 -0.119999997      -1.28196039E-11
  -1.11022302E-15  -6.39426099E-12
  0.119999997       2.08434051E-12
  0.239999995       1.18459704E-11
  0.360000014       2.18805859E-11
  0.479999989       3.10601544E-11
  0.600000024       3.82678507E-11
  0.720000029       4.25111300E-11
  0.839999974       4.30040031E-11
  0.959999979       3.92157799E-11
   1.08000004       3.08945473E-11
   1.20000005       1.80795257E-11
   1.32000005       1.11580829E-12
   1.44000006      -1.93216467E-11
   1.55999994      -4.21974851E-11
   1.67999995      -6.60898905E-11
   1.79999995      -8.91840629E-11
   1.91999996      -1.09297751E-10
   2.03999996      -1.23943814E-10
   2.16000009      -1.30424727E-10
   2.27999997      -1.25945629E-10
   2.40000010      -1.07728722E-10
   2.51999998      -7.31146602E-11
   2.64000010      -1.96442827E-11
   2.75999999       5.48768184E-11
   2.88000011       1.52320823E-10
   3.00000000       2.74175599E-10
   3.11999989       4.21470109E-10
   3.24000001       5.94691962E-10
   3.35999990       7.93709376E-10
   3.48000002       1.01772279E-09
   3.59999990       1.26526845E-09
   3.72000003       1.53429558E-09
   3.83999991       1.82231741E-09
   3.96000004       2.12663154E-09
   4.07999992       2.44457610E-09
   4.19999981       2.77379320E-09
   4.32000017       3.11246495E-09
   4.44000006       3.45949713E-09
   4.55999994       3.81464593E-09
   4.67999983       4.17859214E-09
   4.80000019       4.55297711E-09
   4.92000008       4.94041696E-09
   5.03999996       5.34449951E-09
   5.15999985       5.76974912E-09
   5.28000021       6.22154239E-09
   5.40000010       6.70593714E-09
   5.51999998       7.22939975E-09
   5.63999987       7.79843390E-09
   5.76000023       8.41915160E-09
   5.88000011       9.09686459E-09
   6.00000000       9.83577397E-09
   6.11999989       1.06388622E-08
   6.23999977       1.15080399E-08
   6.36000013       1.24445396E-08
   6.48000002       1.34495082E-08
   6.59999990       1.45246615E-08
   6.71999979       1.56728728E-08
   6.84000015       1.68985448E-08
   6.96000004       1.82076754E-08
   7.07999992       1.96076098E-08
   7.19999981       2.11065458E-08
   7.32000017       2.27129107E-08
   7.44000006       2.44347937E-08
   7.55999994       2.62795794E-08
   7.67999983       2.82538721E-08
   7.80000019       3.03637364E-08
   7.92000008       3.26152083E-08
   8.03999996       3.50149172E-08
   8.15999985       3.75706932E-08
   8.27999973       4.02919724E-08
   8.39999962       4.31899814E-08
   8.52000046       4.62775809E-08
   8.64000034       4.95689463E-08
   8.76000023       5.30790842E-08
   8.88000011       5.68233993E-08
   9.00000000       6.08174915E-08
   9.11999989       6.50771455E-08
   9.23999977       6.96186433E-08
   9.35999966       7.44592583E-08
   9.47999954       7.96178341E-08
   9.60000038       8.51153317E-08
   9.72000027       9.09750639E-08
   9.84000015       9.72227596E-08
   9.96000004       1.03886165E-07
   10.0799999       1.10994506E-07
   10.1999998       1.18577745E-07
   10.3199997       1.26665867E-07
   10.4399996       1.35288289E-07
   10.5600004       1.44473546E-07
   10.6800003       1.54249236E-07
   10.8000002       1.64642131E-07
   10.9200001       1.75678665E-07
   11.0400000       1.87385453E-07
   11.1599998       1.99789895E-07
   11.2799997       2.12920980E-07
   11.3999996       2.26809888E-07
   11.5200005       2.41490625E-07
   11.6400003       2.57000551E-07
   11.7600002       2.73380522E-07
   11.8800001       2.90674933E-07
   12.0000000       3.08931419E-07
   12.1199999       3.28200372E-07
   12.2399998       3.48534371E-07
   12.3599997       3.69987561E-07
   12.4799995       3.92615760E-07
   12.6000004       4.16476325E-07
   12.7200003       4.41628913E-07
   12.8400002       4.68135852E-07
   12.9600000       4.96062967E-07
   13.0799999       5.25479493E-07
   13.1999998       5.56458133E-07
   13.3199997       5.89073863E-07
   13.4399996       6.23403253E-07
   13.5600004       6.59522925E-07
   13.6800003       6.97509108E-07
   13.8000002       7.37437574E-07
   13.9200001       7.79384095E-07
   14.0400000       8.23426092E-07
   14.1599998       8.69643827E-07
   14.2799997       9.18122282E-07
   14.3999996       9.68951781E-07
   14.5200005       1.02222839E-06
   14.6400003       1.07805306E-06
   14.7600002       1.13653039E-06
   14.8800001       1.19776712E-06
   15.0000000       1.26187183E-06
   15.1199999       1.32895377E-06
   15.2399998       1.39912368E-06
   15.3599997       1.47249364E-06
   15.4799995       1.54917939E-06
   15.6000004       1.62929973E-06
   15.7200003       1.71297779E-06
   15.8400002       1.80034021E-06
   15.9600000       1.89151706E-06
   16.0799999       1.98664111E-06
   16.2000008       2.08584606E-06
   16.3199997       2.18926834E-06
   16.4400005       2.29704460E-06
   16.5599995       2.40931490E-06
   16.6800003       2.52622090E-06
   16.7999992       2.64790697E-06
   16.9200001       2.77451886E-06
   17.0400009       2.90620437E-06
   17.1599998       3.04310856E-06
   17.2800007       3.18537468E-06
   17.3999996       3.33314188E-06
   17.5200005       3.48654680E-06
   17.6399994       3.64572224E-06
   17.7600002       3.81080304E-06
   17.8799992       3.98192697E-06
   18.0000000       4.15923932E-06
   18.1200008       4.34289404E-06
   18.2399998       4.53305302E-06
   18.3600006       4.72988586E-06
   18.4799995       4.93356583E-06
   18.6000004       5.14426392E-06
   18.7199993       5.36214884E-06
   18.8400002       5.58737975E-06
   18.9599991       5.82010716E-06
   19.0799999       6.06047342E-06
   19.2000008       6.30861268E-06
   19.3199997       6.56465591E-06
   19.4400005       6.82873178E-06
   19.5599995       7.10096674E-06
   19.6800003       7.38148765E-06
   19.7999992       7.67041911E-06
   19.9200001       7.96788390E-06
   20.0400009       8.27400072E-06
   20.1599998       8.58888234E-06
   20.2800007       8.91263699E-06
   20.3999996       9.24536471E-06
   20.5200005       9.58716282E-06
   20.6399994       9.93811955E-06
   20.7600002       1.02983167E-05
   20.8799992       1.06678317E-05
   21.0000000       1.10467354E-05
   21.1200008       1.14350942E-05
   21.2399998       1.18329681E-05
   21.3600006       1.22404135E-05
   21.4799995       1.26574823E-05
   21.6000004       1.30842182E-05
   21.7199993       1.35206556E-05
   21.8400002       1.39668191E-05
   21.9599991       1.44227106E-05
   22.0799999       1.48883173E-05
   22.2000008       1.53636047E-05
   22.3199997       1.58485236E-05
   22.4400005       1.63430086E-05
   22.5599995       1.68469869E-05
   22.6800003       1.73603785E-05
   22.7999992       1.78831015E-05
   22.9200001       1.84150595E-05
   23.0400009       1.89561579E-05
   23.1599998       1.95062839E-05
   23.2800007       2.00653030E-05
   23.3999996       2.06330660E-05
   23.5200005       2.12093910E-05
   23.6399994       2.17940797E-05
   23.7600002       2.23869174E-05
   23.8799992       2.29876787E-05
   24.0000000       2.35961325E-05
   24.1200008       2.42120350E-05
   24.2399998       2.48351407E-05
   24.3600006       2.54651950E-05
   24.4799995       2.61019250E-05
   24.6000004       2.67450396E-05
   24.7199993       2.73942242E-05
   24.8400002       2.80491367E-05
   24.9599991       2.87094208E-05
   25.0799999       2.93746925E-05
   25.2000008       3.00445536E-05
   25.3199997       3.07185983E-05
   25.4400005       3.13964119E-05
   25.5599995       3.20775653E-05
   25.6800003       3.27616181E-05
   25.7999992       3.34481119E-05
   25.9200001       3.41365740E-05
   26.0400009       3.48265166E-05
   26.1599998       3.55174161E-05
   26.2800007       3.62087376E-05
   26.3999996       3.68999281E-05
   26.5200005       3.75904092E-05
   26.6399994       3.82795952E-05
   26.7600002       3.89668821E-05
   26.8799992       3.96516662E-05
   27.0000000       4.03333179E-05
   27.1200008       4.10112189E-05
   27.2399998       4.16847397E-05
   27.3600006       4.23532510E-05
   27.4799995       4.30161163E-05
   27.6000004       4.36726950E-05
   27.7199993       4.43223325E-05
   27.8400002       4.49643667E-05
   27.9599991       4.55981281E-05
   28.0799999       4.62229327E-05
   28.2000008       4.68380968E-05
   28.3199997       4.74429107E-05
   28.4400005       4.80366798E-05
   28.5599995       4.86187055E-05
   28.6800003       4.91882747E-05
   28.7999992       4.97446781E-05
   28.9200001       5.02871917E-05
   29.0400009       5.08150879E-05
   29.1599998       5.13276282E-05
   29.2800007       5.18240595E-05
   29.3999996       5.23036251E-05
   29.5200005       5.27655684E-05
   29.6399994       5.32091472E-05
   29.7600002       5.36336265E-05
   29.8799992       5.40383044E-05
   30.0000000       5.44224822E-05
   30.1200008       5.47854906E-05
   30.2399998       5.51266712E-05
   30.3600006       5.54453763E-05
   30.4799995       5.57409548E-05
   30.6000004       5.60127773E-05
   30.7199993       5.62601963E-05
   30.8400002       5.64825823E-05
   30.9599991       5.66792987E-05
   31.0799999       5.68497380E-05
   31.2000008       5.69932854E-05
   31.3199997       5.71093587E-05
   31.4400005       5.71973687E-05
   31.5599995       5.72567697E-05
   31.6800003       5.72870085E-05
   31.7999992       5.72875470E-05
   31.9200001       5.72578683E-05
   32.0400009       5.71974742E-05
   32.1599998       5.71058881E-05
   32.2799988       5.69826516E-05
   32.4000015       5.68273390E-05
   32.5200005       5.66395465E-05
   32.6399994       5.64188922E-05
   32.7599983       5.61650231E-05
   32.8800011       5.58776010E-05
   33.0000000       5.55563092E-05
   33.1199989       5.52008496E-05
   33.2400017       5.48109492E-05
   33.3600006       5.43863353E-05
   33.4799995       5.39267712E-05
   33.5999985       5.34320279E-05
   33.7200012       5.29019053E-05
   33.8400002       5.23362141E-05
   33.9599991       5.17348053E-05
   34.0800018       5.10975478E-05
   34.2000008       5.04243471E-05
   34.3199997       4.97151450E-05
   34.4399986       4.89699269E-05
   34.5600014       4.81886964E-05
   34.6800003       4.73715045E-05
   34.7999992       4.65184203E-05
   34.9199982       4.56295384E-05
   35.0400009       4.47049679E-05
   35.1599998       4.37448289E-05
   35.2799988       4.27492741E-05
   35.4000015       4.17184638E-05
   35.5200005       4.06526015E-05
   35.6399994       3.95519019E-05
   35.7599983       3.84166306E-05
   35.8800011       3.72470640E-05
   36.0000000       3.60435261E-05
   36.1199989       3.48063622E-05
   36.2400017       3.35359327E-05
   36.3600006       3.22326341E-05
   36.4799995       3.08968520E-05
   36.5999985       2.95290065E-05
   36.7200012       2.81295197E-05
   36.8400002       2.66988391E-05
   36.9599991       2.52374266E-05
   37.0800018       2.37457625E-05
   37.2000008       2.22243489E-05
   37.3199997       2.06736986E-05
   37.4399986       1.90943374E-05
   37.5600014       1.74868037E-05
   37.6800003       1.58516432E-05
   37.7999992       1.41894152E-05
   37.9199982       1.25007000E-05
   38.0400009       1.07860969E-05
   38.1599998       9.04622993E-06
   38.2799988       7.28175155E-06
   38.4000015       5.49333026E-06
   38.5200005       3.68164888E-06
   38.6399994       1.84739724E-06
   38.7599983      -8.74352413E-09
   38.8800011      -1.88609488E-06
   39.0000000      -3.78399068E-06
   39.1199989      -5.70176644E-06
   39.2400017      -7.63875414E-06
   39.3600006      -9.59427689E-06
   39.4799995      -1.15676376E-05
   39.5999985      -1.35581222E-05
   39.7200012      -1.55649977E-05
   39.8400002      -1.75875284E-05
   39.9599991      -1.96249857E-05
   40.0800018      -2.16766512E-05
   40.2000008      -2.37418353E-05
   40.3199997      -2.58198761E-05
   40.4399986      -2.79101314E-05
   40.5600014      -3.00119864E-05
   40.6800003      -3.21248517E-05
   40.7999992      -3.42481326E-05
   40.9199982      -3.63812542E-05
   41.0400009      -3.85236453E-05
   41.1599998      -4.06747276E-05
   41.2799988      -4.28339335E-05
   41.4000015      -4.50007101E-05
   41.5200005      -4.71745007E-05
   41.6399994      -4.93547632E-05
   41.7599983      -5.15409811E-05
   41.8800011      -5.37326487E-05
   42.0000000      -5.59293076E-05
   42.1199989      -5.81305503E-05
   42.2400017      -6.03360168E-05
   42.3600006      -6.25453977E-05
   42.4799995      -6.47584238E-05
   42.5999985      -6.69748697E-05
   42.7200012      -6.91945461E-05
   42.8400002      -7.14172784E-05
   42.9599991      -7.36429211E-05
   43.0800018      -7.58713504E-05
   43.2000008      -7.81024646E-05
   43.3199997      -8.03361836E-05
   43.4399986      -8.25724710E-05
   43.5600014      -8.48113268E-05
   43.6800003      -8.70527947E-05
   43.7999992      -8.92969692E-05
   43.9199982      -9.15440032E-05
   44.0400009      -9.37941004E-05
   44.1599998      -9.60475008E-05
   44.2799988      -9.83045247E-05
   44.4000015      -1.00565529E-04
   44.5200005      -1.02830934E-04
   44.6399994      -1.05101208E-04
   44.7599983      -1.07376836E-04
   44.8800011      -1.09658380E-04
   45.0000000      -1.11946443E-04
   45.1199989      -1.14241666E-04
   45.2400017      -1.16544732E-04
   45.3600006      -1.18856369E-04
   45.4799995      -1.21177356E-04
   45.5999985      -1.23508507E-04
   45.7200012      -1.25850653E-04
   45.8400002      -1.28204716E-04
   45.9599991      -1.30571614E-04
   46.0800018      -1.32952366E-04
   46.2000008      -1.35348018E-04
   46.3199997      -1.37759678E-04
   46.4399986      -1.40188509E-04
   46.5600014      -1.42635705E-04
   46.6800003      -1.45102444E-04
   46.7999992      -1.47590006E-04
   46.9199982      -1.50099630E-04
   47.0400009      -1.52632609E-04
   47.1599998      -1.55190282E-04
   47.2799988      -1.57773975E-04
   47.4000015      -1.60385112E-04
   47.5200005      -1.63025121E-04
   47.6399994      -1.65695470E-04
   47.7599983      -1.68397630E-04
   47.8800011      -1.71133084E-04
   48.0000000      -1.73903361E-04
   48.1199989      -1.76709960E-04
   48.2400017      -1.79554452E-04
   48.3600006      -1.82438351E-04
   48.4799995      -1.85363228E-04
   48.5999985      -1.88330640E-04
   48.7200012      -1.91342144E-04
   48.8400002      -1.94399283E-04
   48.9599991      -1.97503628E-04
   49.0800018      -2.00656679E-04
   49.2000008      -2.03859949E-04
   49.3199997      -2.07114921E-04
   49.4399986      -2.10423066E-04
   49.5600014      -2.13785766E-04
   49.6800003      -2.17204433E-04
   49.7999992      -2.20680464E-04
   49.9199982      -2.24215182E-04
   50.0400009      -2.27809898E-04
   50.1599998      -2.31465892E-04
   50.2799988      -2.35184358E-04
   50.4000015      -2.38966430E-04
   50.5200005      -2.42813156E-04
   50.6399994      -2.46725569E-04
   50.7599983      -2.50704557E-04
   50.8800011      -2.54751096E-04
   51.0000000      -2.58865970E-04
   51.1199989      -2.63049878E-04
   51.2400017      -2.67303520E-04
   51.3600006      -2.71627476E-04
   51.4799995      -2.76022212E-04
   51.5999985      -2.80488079E-04
   51.7200012      -2.85025482E-04
   51.8400002      -2.89634510E-04
   51.9599991      -2.94315279E-04
   52.0800018      -2.99067819E-04
   52.2000008      -3.03891953E-04
   52.3199997      -3.08787450E-04
   52.4399986      -3.13753902E-04
   52.5600014      -3.18790873E-04
   52.6800003      -3.23897722E-04
   52.7999992      -3.29073751E-04
   52.9199982      -3.34318058E-04
   53.0400009      -3.39629623E-04
   53.1599998      -3.45007342E-04
   53.2799988      -3.50449904E-04
   53.4000015      -3.55955854E-04
   53.5200005      -3.61523737E-04
   53.6399994      -3.67151864E-04
   53.7599983      -3.72838345E-04
   53.8800011      -3.78581259E-04
   54.0000000      -3.84378422E-04
   54.1199989      -3.90227535E-04
   54.2400017      -3.96126125E-04
   54.3600006      -4.02071571E-04
   54.4799995      -4.08061140E-04
   54.5999985      -4.14091948E-04
   54.7200012      -4.20160941E-04
   54.8400002      -4.26264887E-04
   54.9599991      -4.32400499E-04
   55.0800018      -4.38564195E-04
   55.2000008      -4.44752281E-04
   55.3199997      -4.50960913E-04
   55.4399986      -4.57186077E-04
   55.5600014      -4.63423639E-04
   55.6800003      -4.69669292E-04
   55.7999992      -4.75918670E-04
   55.9199982      -4.82167234E-04
   56.0400009      -4.88410355E-04
   56.1599998      -4.94643173E-04
   56.2799988      -5.00860857E-04
   56.4000015      -5.07058227E-04
   56.5200005      -5.13230101E-04
   56.6399994      -5.19371126E-04
   56.7599983      -5.25475829E-04
   56.8800011      -5.31538681E-04
   57.0000000      -5.37554035E-04
   57.1199989      -5.43516129E-04
   57.2400017      -5.49419143E-04
   57.3600006      -5.55257080E-04
   57.4799995      -5.61023946E-04
   57.5999985      -5.66713396E-04
   57.7200012      -5.72319201E-04
   57.8400002      -5.77835075E-04
   57.9599991      -5.83254558E-04
   58.0800018      -5.88571071E-04
   58.2000008      -5.93778270E-04
   58.3199997      -5.98869461E-04
   58.4399986      -6.03838300E-04
   58.5600014      -6.08678150E-04
   58.6800003      -6.13382377E-04
   58.7999992      -6.17944519E-04
   58.9199982      -6.22357824E-04
   59.0400009      -6.26615889E-04
   59.1599998      -6.30712020E-04
   59.2799988      -6.34639699E-04
   59.4000015      -6.38392405E-04
   59.5200005      -6.41963619E-04
   59.6399994      -6.45346823E-04
   59.7599983      -6.48535613E-04
   59.8800011      -6.51523646E-04
   60.0000000      -6.54304517E-04
   60.1199989      -6.56872056E-04
   60.2400017      -6.59220270E-04
   60.3600006      -6.61342929E-04
   60.4799995      -6.63234328E-04
   60.5999985      -6.64888590E-04
   60.7200012      -6.66300184E-04
   60.8400002      -6.67463639E-04
   60.9599991      -6.68373599E-04
   61.0800018      -6.69024943E-04
   61.2000008      -6.69412722E-04
   61.3199997      -6.69532048E-04
   61.4399986      -6.69378496E-04
   61.5600014      -6.68947701E-04
   61.6800003      -6.68235472E-04
   61.7999992      -6.67237851E-04
   61.9199982      -6.65951229E-04
   62.0400009      -6.64371997E-04
   62.1599998      -6.62496896E-04
   62.2799988      -6.60322839E-04
   62.4000015      -6.57847209E-04
   62.5200005      -6.55067561E-04
   62.6399994      -6.51981682E-04
   62.7599983      -6.48587651E-04
   62.8800011      -6.44884014E-04
   63.0000000      -6.40869490E-04
   63.1199989      -6.36543031E-04
   63.2400017      -6.31904113E-04
   63.3600006      -6.26952213E-04
   63.4799995      -6.21687504E-04
   63.5999985      -6.16110163E-04
   63.7200012      -6.10220945E-04
   63.8400002      -6.04020839E-04
   63.9599991      -5.97511185E-04
   64.0800018      -5.90693788E-04
   64.1999969      -5.83570800E-04
   64.3199997      -5.76144666E-04
   64.4400024      -5.68418298E-04
   64.5599976      -5.60394896E-04
   64.6800003      -5.52077894E-04
   64.8000031      -5.43471135E-04
   64.9199982      -5.34578809E-04
   65.0400009      -5.25405456E-04
   65.1600037      -5.15956024E-04
   65.2799988      -5.06235927E-04
   65.4000015      -4.96250752E-04
   65.5199966      -4.86006698E-04
   65.6399994      -4.75510053E-04
   65.7600021      -4.64767683E-04
   65.8799973      -4.53786546E-04
   66.0000000      -4.42574150E-04
   66.1200027      -4.31138207E-04
   66.2399979      -4.19486867E-04
   66.3600006      -4.07628540E-04
   66.4800034      -3.95572017E-04
   66.5999985      -3.83326318E-04
   66.7200012      -3.70900700E-04
   66.8399963      -3.58304736E-04
   66.9599991      -3.45548237E-04
   67.0800018      -3.32641241E-04
   67.1999969      -3.19594081E-04
   67.3199997      -3.06417351E-04
   67.4400024      -2.93121964E-04
   67.5599976      -2.79718952E-04
   67.6800003      -2.66219577E-04
   67.8000031      -2.52635335E-04
   67.9199982      -2.38977853E-04
   68.0400009      -2.25258860E-04
   68.1600037      -2.11490333E-04
   68.2799988      -1.97684334E-04
   68.4000015      -1.83853015E-04
   68.5199966      -1.70008716E-04
   68.6399994      -1.56163820E-04
   68.7600021      -1.42330697E-04
   68.8799973      -1.28521802E-04
   69.0000000      -1.14749615E-04
   69.1200027      -1.01026584E-04
   69.2399979      -8.73651734E-05
   69.3600006      -7.37777809E-05
   69.4800034      -6.02767941E-05
   69.5999985      -4.68745129E-05
   69.7200012      -3.35831610E-05
   69.8399963      -2.04148473E-05
   69.9599991      -7.38154495E-06
   70.0800018       5.50489540E-06
   70.1999969       1.82327658E-05
   70.3199997       3.07904957E-05
   70.4400024       4.31666813E-05
   70.5599976       5.53500868E-05
   70.6800003       6.73297109E-05
   70.8000031       7.90947597E-05
   70.9199982       9.06347486E-05
   71.0400009       1.01939477E-04
   71.1600037       1.12999085E-04
   71.2799988       1.23804028E-04
   71.4000015       1.34345144E-04
   71.5199966       1.44613601E-04
   71.6399994       1.54600901E-04
   71.7600021       1.64298923E-04
   71.8799973       1.73699853E-04
   72.0000000       1.82796270E-04
   72.1200027       1.91581159E-04
   72.2399979       2.00047827E-04
   72.3600006       2.08190133E-04
   72.4800034       2.16002343E-04
   72.5999985       2.23479190E-04
   72.7200012       2.30615842E-04