  -30.0000000       0.00000000    
  -29.8799992       0.00000000    
  -29.7600002       0.00000000    
  -29.6399994       0.00000000    
  -29.5200005       0.00000000    
  -29.3999996      -2.55959237E-23
  -29.2800007      -1.79802251E-22
  -29.1599998      -5.76776320E-22
  -29.0400009      -9.72831447E-22
  -28.9200001      -4.76396862E-22
  -28.7999992       1.16960017E-21
  -28.6800003      -6.94238542E-22
  -28.5599995      -2.04271380E-20
  -28.4400005      -7.74512860E-20
  -28.3199997      -1.69313209E-19
  -28.2000008      -2.24335880E-19
  -28.0799999      -7.25169856E-20
  -27.9599991       4.91349833E-19
  -27.8400002       1.49611061E-18
  -27.7199993       2.49121820E-18
  -27.6000004       2.38708360E-18
  -27.4799995      -2.22183944E-19
  -27.3600006      -6.06877765E-18
  -27.2399998      -1.38483592E-17
  -27.1200008      -1.93694349E-17
  -27.0000000      -1.63226061E-17
  -26.8799992       8.15264145E-19
  -26.7600002       3.25969612E-17
  -26.6399994       7.13687594E-17
  -26.5200005       1.01408174E-16
  -26.3999996       1.03212573E-16
  -26.2800007       5.99776420E-17
  -26.1599998      -3.73169034E-17
  -26.0400009      -1.88092851E-16
  -25.9200001      -3.80579553E-16
  -25.7999992      -5.83115639E-16
  -25.6800003      -7.23632529E-16
  -25.5599995      -6.65968855E-16
  -25.4400005      -2.11474560E-16
  -25.3199997       8.34071967E-16
  -25.2000008       2.50426837E-15
  -25.0799999       4.45699970E-15
  -24.9599991       5.81019751E-15
  -24.8400002       5.19943551E-15
  -24.7199993       1.21194607E-15
  -24.6000004      -6.78550937E-15
  -24.4799995      -1.76525054E-14
  -24.3600006      -2.78028977E-14
  -24.2399998      -3.14656680E-14
  -24.1200008      -2.23218271E-14
  -24.0000000       3.55497017E-15
  -23.8799992       4.42759199E-14
  -23.7600002       8.97396171E-14
  -23.6399994       1.21993453E-13
  -23.5200005       1.19532639E-13
  -23.3999996       6.53302011E-14
  -23.2800007      -4.34784316E-14
  -23.1599998      -1.87966355E-13
  -23.0400009      -3.26085648E-13
  -22.9200001      -4.00666886E-13
  -22.7999992      -3.56771849E-13
  -22.6800003      -1.64392602E-13
  -22.5599995       1.61094418E-13
  -22.4400005       5.49730400E-13
  -22.3199997       8.86063033E-13
  -22.2000008       1.03809127E-12
  -22.0799999       9.00120690E-13
  -21.9599991       4.36678146E-13
  -21.8400002      -2.88639934E-13
  -21.7199993      -1.11304477E-12
  -21.6000004      -1.80853314E-12
  -21.4799995      -2.14358522E-12
  -21.3600006      -1.95518168E-12
  -21.2399998      -1.20793469E-12
  -21.1200008      -1.94127602E-14
  -21.0000000       1.35908515E-12
  -20.8799992       2.60243953E-12
  -20.7600002       3.39486967E-12
  -20.6399994       3.51157948E-12
  -20.5200005       2.87564807E-12
  -20.3999996       1.57622732E-12
  -20.2800007      -1.53162151E-13
  -20.1599998      -1.98649539E-12
  -20.0400009      -3.57218899E-12
  -19.9200001      -4.60067618E-12
  -19.7999992      -4.86212849E-12
  -19.6800003      -4.28737384E-12
  -19.5599995      -2.96594932E-12
  -19.4400005      -1.13451002E-12
  -19.3199997       8.69646044E-13
  -19.2000008       2.68774087E-12
  -19.0799999       4.03551888E-12
  -18.9599991       4.78560204E-12
  -18.8400002       4.99929308E-12
  -18.7199993       4.88116362E-12
  -18.6000004       4.65853051E-12
  -18.4799995       4.42646267E-12
  -18.3600006       4.02967850E-12
  -18.2399998       3.05617619E-12
  -18.1200008       9.83058253E-13
  -18.0000000      -2.55069989E-12
  -17.8799992      -7.44170090E-12
  -17.7600002      -1.29301708E-11
  -17.6399994      -1.76443617E-11
  -17.5200005      -1.99279430E-11
  -17.3999996      -1.83776432E-11
  -17.2800007      -1.24077059E-11
  -17.1599998      -2.61061875E-12
  -17.0400009       9.26656061E-12
  -16.9200001       2.07710862E-11
  -16.7999992       2.94816116E-11
  -16.6800003       3.37583572E-11
  -16.5599995       3.32019273E-11
  -16.4400005       2.86226789E-11
  -16.3199997       2.15279947E-11
  -16.2000008       1.33530366E-11
  -16.0799999       4.78866859E-12
  -15.9600000      -4.46923835E-12
  -15.8400002      -1.54094723E-11
  -15.7200003      -2.89546477E-11
  -15.6000004      -4.51040386E-11
  -15.4799995      -6.23646967E-11
  -15.3599997      -7.77369419E-11
  -15.2399998      -8.72626693E-11
  -15.1199999      -8.68889335E-11
  -15.0000000      -7.32801458E-11
  -14.8800001      -4.42989603E-11
  -14.7600002       8.78356415E-13
  -14.6400003       6.17853962E-11
  -14.5200005       1.36495523E-10
  -14.3999996       2.21074922E-10
  -14.2799997       3.08834125E-10
  -14.1599998       3.89931837E-10
  -14.0400000       4.52033022E-10
  -13.9200001       4.82460905E-10
  -13.8000002       4.71628903E-10
  -13.6800003       4.16734314E-10
  -13.5600004       3.24146682E-10
  -13.4399996       2.08986550E-10
  -13.3199997       9.12172352E-11
  -13.1999998      -1.10587069E-11
  -13.0799999      -8.90116522E-11
  -12.9600000      -1.48347279E-10
  -12.8400002      -2.09887857E-10
  -12.7200003      -3.04421155E-10
  -12.6000004      -4.62946098E-10
  -12.4799995      -7.05486114E-10
  -12.3599997      -1.03265729E-09
  -12.2399998      -1.42360990E-09
  -12.1199999      -1.84185556E-09
  -12.0000000      -2.24755903E-09
  -11.8800001      -2.61222799E-09
  -11.7600002      -2.93046409E-09
  -11.6400003      -3.22416138E-09
  -11.5200005      -3.53711194E-09
  -11.3999996      -3.92147737E-09
  -11.2799997      -4.42072734E-09
  -11.1599998      -5.05518516E-09
  -11.0400000      -5.81557957E-09
  -10.9200001      -6.66724675E-09
  -10.8000002      -7.56376917E-09
  -10.6800003      -8.46535197E-09
  -10.5600004      -9.35539557E-09
  -10.4399996      -1.02492255E-08
  -10.3199997      -1.11916423E-08
  -10.1999998      -1.22438619E-08
  -10.0799999      -1.34641702E-08
  -9.96000004      -1.48888626E-08
  -9.84000015      -1.65199712E-08
  -9.72000027      -1.83240392E-08
  -9.60000038      -2.02424211E-08
  -9.47999954      -2.22097469E-08
  -9.35999966      -2.41745273E-08
  -9.23999977      -2.61152540E-08
  -9.11999989      -2.80469958E-08
  -9.00000000      -3.00169098E-08
  -8.88000011      -3.20907425E-08
  -8.76000023      -3.43354678E-08
  -8.64000034      -3.68042770E-08
  -8.52000046      -3.95290130E-08
  -8.39999962      -4.25220712E-08
  -8.27999973      -4.57863614E-08
  -8.15999985      -4.93285945E-08
  -8.03999996      -5.31700799E-08
  -7.92000008      -5.73502277E-08
  -7.80000019      -6.19208933E-08
  -7.67999983      -6.69335876E-08
  -7.55999994      -7.24245126E-08
  -7.44000006      -7.84037653E-08
  -7.32000017      -8.48535819E-08
  -7.19999981      -9.17372844E-08
  -7.07999992      -9.90164892E-08
  -6.96000004      -1.06670811E-07
  -6.84000015      -1.14713423E-07
  -6.71999979      -1.23197054E-07
  -6.59999990      -1.32208655E-07
  -6.48000002      -1.41854855E-07
  -6.36000013      -1.52243288E-07
  -6.23999977      -1.63466225E-07
  -6.11999989      -1.75591055E-07
  -6.00000000      -1.88659811E-07
  -5.88000011      -2.02696455E-07
  -5.76000023      -2.17718451E-07
  -5.63999987      -2.33748551E-07
  -5.51999998      -2.50823462E-07
  -5.40000010      -2.68998036E-07
  -5.28000021      -2.88344921E-07
  -5.15999985      -3.08950973E-07
  -5.03999996      -3.30912059E-07
  -4.92000008      -3.54327256E-07
  -4.80000019      -3.79293681E-07
  -4.67999983      -4.05903222E-07
  -4.55999994      -4.34241684E-07
  -4.44000006      -4.64391576E-07
  -4.32000017      -4.96438190E-07
  -4.19999981      -5.30477791E-07
  -4.07999992      -5.66624863E-07
  -3.96000004      -6.05015316E-07
  -3.83999991      -6.45803766E-07
  -3.72000003      -6.89153069E-07
  -3.59999990      -7.35220169E-07
  -3.48000002      -7.84141548E-07
  -3.35999990      -8.36023901E-07
  -3.24000001      -8.90944534E-07
  -3.11999989      -9.48962224E-07
  -3.00000000      -1.01013654E-06
  -2.88000011      -1.07455094E-06
  -2.75999999      -1.14233364E-06
  -2.64000010      -1.21367066E-06
  -2.51999998      -1.28880743E-06
  -2.40000010      -1.36803988E-06
  -2.27999997      -1.45169690E-06
  -2.16000009      -1.54011695E-06
  -2.03999996      -1.63362586E-06
  -1.91999996      -1.73251908E-06
  -1.79999995      -1.83705242E-06
  -1.67999995      -1.94744393E-06
  -1.55999994      -2.06388722E-06
  -1.44000006      -2.18657124E-06
  -1.32000005      -2.31570766E-06
  -1.20000005      -2.45155388E-06
  -1.08000004      -2.59442754E-06
 -0.959999979      -2.74470926E-06
 -0.839999974      -2.90283083E-06
 -0.720000029      -3.06925358E-06
 -0.600000024      -3.24443931E-06
 -0.479999989      -3.42882845E-06
 -0.360000014      -3.62282299E-06
 -0.239999995      -3.82678672E-06
 -0.119999997      -4.04105685E-06
  -1.11022302E-15  -4.26596216E-06
  0.119999997      -4.50184552E-06
  0.239999995      -4.74908256E-06
  0.360000014      -5.00808846E-06
  0.479999989      -5.27932434E-06
  0.600000024      -5.56328860E-06
  0.720000029      -5.86050965E-06
  0.839999974      -6.17153864E-06
  0.959999979      -6.49694402E-06
   1.08000004      -6.83730968E-06
   1.20000005      -7.19323452E-06
   1.32000005      -7.56532791E-06
   1.44000006      -7.95420965E-06
   1.55999994      -8.36050094E-06
   1.67999995      -8.78481933E-06
   1.79999995      -9.22777508E-06
   1.91999996      -9.68997392E-06
   2.03999996      -1.01720225E-05
   2.16000009      -1.06745474E-05
   2.27999997      -1.11982081E-05
   2.40000010      -1.17437212E-05
   2.51999998      -1.23118589E-05
   2.64000010      -1.29034534E-05
   2.75999999      -1.35193850E-05
   2.88000011      -1.41605569E-05
   3.00000000      -1.48278768E-05
   3.11999989      -1.55222315E-05
   3.24000001      -1.62444776E-05
   3.35999990      -1.69954365E-05
   3.48000002      -1.77758939E-05
   3.59999990      -1.85866120E-05
   3.72000003      -1.94283548E-05
   3.83999991      -2.03018935E-05
   3.96000004      -2.12080267E-05
   4.07999992      -2.21475948E-05
   4.19999981      -2.31214781E-05
   4.32000017      -2.41306079E-05
   4.44000006      -2.51759648E-05
   4.55999994      -2.62585581E-05
   4.67999983      -2.73794121E-05
   4.80000019      -2.85395545E-05
   4.92000008      -2.97399893E-05
   5.03999996      -3.09816969E-05
   5.15999985      -3.22656124E-05
   5.28000021      -3.35926379E-05
   5.40000010      -3.49636357E-05
   5.51999998      -3.63794570E-05
   5.63999987      -3.78409131E-05
   5.76000023      -3.93488444E-05
   5.88000011      -4.09040804E-05
   6.00000000      -4.25074759E-05
   6.11999989      -4.41599150E-05
   6.23999977      -4.58623035E-05
   6.36000013      -4.76155838E-05
   6.48000002      -4.94206979E-05
   6.59999990      -5.12785882E-05
   6.71999979      -5.31901605E-05
   6.84000015      -5.51562880E-05
   6.96000004      -5.71777564E-05
   7.07999992      -5.92552897E-05
   7.19999981      -6.13895390E-05
   7.32000017      -6.35810939E-05
   7.44000006      -6.58304707E-05
   7.55999994      -6.81381644E-05
   7.67999983      -7.05046550E-05
   7.80000019      -7.29303647E-05
   7.92000008      -7.54157372E-05
   8.03999996      -7.79612092E-05
   8.15999985      -8.05671953E-05
   8.27999973      -8.32341102E-05
   8.39999962      -8.59623615E-05
   8.52000046      -8.87523202E-05
   8.64000034      -9.16042918E-05
   8.76000023      -9.45184947E-05
   8.88000011      -9.74950308E-05
   9.00000000      -1.00533871E-04
   9.11999989      -1.03634869E-04
   9.23999977      -1.06797765E-04
   9.35999966      -1.10022222E-04
   9.47999954      -1.13307848E-04
   9.60000038      -1.16654228E-04
   9.72000027      -1.20060875E-04
   9.84000015      -1.23527279E-04
   9.96000004      -1.27052888E-04
   10.0799999      -1.30637025E-04
   10.1999998      -1.34278933E-04
   10.3199997      -1.37977724E-04
   10.4399996      -1.41732453E-04
   10.5600004      -1.45541999E-04
   10.6800003      -1.49405198E-04
   10.8000002      -1.53320769E-04
   10.9200001      -1.57287286E-04
   11.0400000      -1.61303178E-04
   11.1599998      -1.65366728E-04
   11.2799997      -1.69475985E-04
   11.3999996      -1.73628854E-04
   11.5200005      -1.77823196E-04
   11.6400003      -1.82056756E-04
   11.7600002      -1.86327263E-04
   11.8800001      -1.90632374E-04
   12.0000000      -1.94969703E-04
   12.1199999      -1.99336777E-04
   12.2399998      -2.03730917E-04
   12.3599997      -2.08149286E-04
   12.4799995      -2.12588886E-04
   12.6000004      -2.17046472E-04
   12.7200003      -2.21518596E-04
   12.8400002      -2.26001677E-04
   12.9600000      -2.30491976E-04
   13.0799999      -2.34985608E-04
   13.1999998      -2.39478599E-04
   13.3199997      -2.43966846E-04
   13.4399996      -2.48446217E-04
   13.5600004      -2.52912461E-04
   13.6800003      -2.57361215E-04
   13.8000002      -2.61788053E-04
   13.9200001      -2.66188348E-04
   14.0400000      -2.70557386E-04
   14.1599998      -2.74890102E-04
   14.2799997      -2.79181317E-04
   14.3999996      -2.83425645E-04
   14.5200005      -2.87617499E-04
   14.6400003      -2.91751261E-04
   14.7600002      -2.95821286E-04
   14.8800001      -2.99821870E-04
   15.0000000      -3.03747336E-04
   15.1199999      -3.07591894E-04
   15.2399998      -3.11349635E-04
   15.3599997      -3.15014477E-04
   15.4799995      -3.18580191E-04
   15.6000004      -3.22040316E-04
   15.7200003      -3.25388304E-04
   15.8400002      -3.28617432E-04
   15.9600000      -3.31720890E-04
   16.0799999      -3.34691897E-04
   16.2000008      -3.37523554E-04
   16.3199997      -3.40209052E-04
   16.4400005      -3.42741667E-04
   16.5599995      -3.45114648E-04
   16.6800003      -3.47321271E-04
   16.7999992      -3.49354785E-04
   16.9200001      -3.51208495E-04
   17.0400009      -3.52875562E-04
   17.1599998      -3.54349089E-04
   17.2800007      -3.55622236E-04
   17.3999996      -3.56688077E-04
   17.5200005      -3.57539597E-04
   17.6399994      -3.58169986E-04
   17.7600002      -3.58572230E-04
   17.8799992      -3.58739606E-04
   18.0000000      -3.58665391E-04
   18.1200008      -3.58342979E-04
   18.2399998      -3.57765995E-04
   18.3600006      -3.56928154E-04
   18.4799995      -3.55823402E-04
   18.6000004      -3.54445801E-04
   18.7199993      -3.52789561E-04
   18.8400002      -3.50849004E-04
   18.9599991      -3.48618691E-04
   19.0799999      -3.46093264E-04
   19.2000008      -3.43267544E-04
   19.3199997      -3.40136525E-04
   19.4400005      -3.36695492E-04
   19.5599995      -3.32939788E-04
   19.6800003      -3.28865077E-04
   19.7999992      -3.24467255E-04
   19.9200001      -3.19742394E-04
   20.0400009      -3.14687029E-04
   20.1599998      -3.09297873E-04
   20.2800007      -3.03572131E-04
   20.3999996      -2.97507358E-04
   20.5200005      -2.91101460E-04
   20.6399994      -2.84352718E-04
   20.7600002      -2.77259736E-04
   20.8799992      -2.69821408E-04
   21.0000000      -2.62036978E-04
   21.1200008      -2.53906008E-04
   21.2399998      -2.45428469E-04
   21.3600006      -2.36604712E-04
   21.4799995      -2.27435477E-04
   21.6000004      -2.17921945E-04
   21.7199993      -2.08065670E-04
   21.8400002      -1.97868721E-04
   21.9599991      -1.87333455E-04
   22.0799999      -1.76462665E-04
   22.2000008      -1.65259669E-04
   22.3199997      -1.53728281E-04
   22.4400005      -1.41872821E-04
   22.5599995      -1.29698135E-04
   22.6800003      -1.17209536E-04
   22.7999992      -1.04412822E-04
   22.9200001      -9.13142212E-05
   23.0400009      -7.79203765E-05
   23.1599998      -6.42383748E-05
   23.2800007      -5.02757393E-05
   23.3999996      -3.60404301E-05
   23.5200005      -2.15408381E-05
   23.6399994      -6.78578408E-06
   23.7600002       8.21552385E-06
   23.8799992       2.34534746E-05
   24.0000000       3.89180423E-05
   24.1200008       5.45988114E-05
   24.2399998       7.04849226E-05
   24.3600006       8.65650436E-05
   24.4799995       1.02827376E-04
   24.6000004       1.19259690E-04
   24.7199993       1.35849332E-04
   24.8400002       1.52583292E-04
   24.9599991       1.69448176E-04
   25.0799999       1.86430305E-04
   25.2000008       2.03515709E-04
   25.3199997       2.20690083E-04
   25.4400005       2.37938933E-04
   25.5599995       2.55247491E-04
   25.6800003       2.72600882E-04
   25.7999992       2.89984018E-04
   25.9200001       3.07381561E-04
   26.0400009       3.24778113E-04
   26.1599998       3.42158135E-04
   26.2800007       3.59505852E-04
   26.3999996       3.76805343E-04
   26.5200005       3.94040486E-04
   26.6399994       4.11194982E-04
   26.7600002       4.28252330E-04
   26.8799992       4.45195998E-04
   27.0000000       4.62009397E-04
   27.1200008       4.78675967E-04
   27.2399998       4.95179498E-04
   27.3600006       5.11503837E-04
   27.4799995       5.27633179E-04
   27.6000004       5.43551927E-04
   27.7199993       5.59244480E-04
   27.8400002       5.74695587E-04
   27.9599991       5.89889649E-04
   28.0799999       6.04811532E-04
   28.2000008       6.19445986E-04
   28.3199997       6.33778342E-04
   28.4400005       6.47793990E-04
   28.5599995       6.61478844E-04
   28.6800003       6.74819283E-04
   28.7999992       6.87801861E-04
   28.9200001       7.00413773E-04
   29.0400009       7.12642504E-04
   29.1599998       7.24475773E-04
   29.2800007       7.35901936E-04
   29.3999996       7.46909645E-04
   29.5200005       7.57488247E-04
   29.6399994       7.67627673E-04
   29.7600002       7.77318201E-04
   29.8799992       7.86550809E-04
   30.0000000       7.95316882E-04
   30.1200008       8.03608389E-04
   30.2399998       8.11417936E-04
   30.3600006       8.18738714E-04
   30.4799995       8.25564610E-04
   30.6000004       8.31889804E-04
   30.7199993       8.37709405E-04
   30.8400002       8.43019166E-04
   30.9599991       8.47815187E-04
   31.0799999       8.52094614E-04
   31.2000008       8.55855178E-04
   31.3199997       8.59095191E-04
   31.4400005       8.61813722E-04
   31.5599995       8.64010246E-04
   31.6800003       8.65685230E-04
   31.7999992       8.66839488E-04
   31.9200001       8.67474766E-04
   32.0400009       8.67593277E-04
   32.1599998       8.67198280E-04
   32.2799988       8.66293442E-04
   32.4000015       8.64883303E-04
   32.5200005       8.62972869E-04
   32.6399994       8.60567670E-04
   32.7599983       8.57673818E-04
   32.8800011       8.54297890E-04
   33.0000000       8.50447104E-04
   33.1199989       8.46129493E-04
   33.2400017       8.41353496E-04
   33.3600006       8.36128078E-04
   33.4799995       8.30462843E-04
   33.5999985       8.24367977E-04
   33.7200012       8.17854016E-04
   33.8400002       8.10932019E-04
   33.9599991       8.03613511E-04
   34.0800018       7.95910542E-04
   34.2000008       7.87835685E-04
   34.3199997       7.79401802E-04
   34.4399986       7.70622108E-04
   34.5600014       7.61509989E-04
   34.6800003       7.52079010E-04
   34.7999992       7.42342905E-04
   34.9199982       7.32315821E-04
   35.0400009       7.22012075E-04
   35.1599998       7.11446395E-04
   35.2799988       7.00633973E-04
   35.4000015       6.89590001E-04
   35.5200005       6.78329903E-04
   35.6399994       6.66869048E-04
   35.7599983       6.55222626E-04
   35.8800011       6.43406122E-04
   36.0000000       6.31434727E-04
   36.1199989       6.19323982E-04
   36.2400017       6.07089256E-04
   36.3600006       5.94746263E-04
   36.4799995       5.82310546E-04
   36.5999985       5.69797412E-04
   36.7200012       5.57222229E-04
   36.8400002       5.44599665E-04
   36.9599991       5.31944621E-04
   37.0800018       5.19271533E-04
   37.2000008       5.06594602E-04
   37.3199997       4.93927917E-04
   37.4399986       4.81285620E-04
   37.5600014       4.68681334E-04
   37.6800003       4.56128502E-04
   37.7999992       4.43640194E-04
   37.9199982       4.31229157E-04
   38.0400009       4.18907730E-04
   38.1599998       4.06687934E-04
   38.2799988       3.94581439E-04
   38.4000015       3.82599566E-04
   38.5200005       3.70753318E-04
   38.6399994       3.59053200E-04
   38.7599983       3.47509224E-04
   38.8800011       3.36130965E-04
   39.0000000       3.24927387E-04
   39.1199989       3.13906989E-04
   39.2400017       3.03077919E-04
   39.3600006       2.92447774E-04
   39.4799995       2.82023917E-04
   39.5999985       2.71813129E-04
   39.7200012       2.61821930E-04
   39.8400002       2.52056256E-04
   39.9599991       2.42521564E-04
   40.0800018       2.33222730E-04
   40.2000008       2.24164192E-04
   40.3199997       2.15349937E-04
   40.4399986       2.06783501E-04
   40.5600014       1.98468100E-04
   40.6800003       1.90406412E-04
   40.7999992       1.82600706E-04
   40.9199982       1.75052672E-04
   41.0400009       1.67763399E-04
   41.1599998       1.60733456E-04
   41.2799988       1.53962930E-04
   41.4000015       1.47451516E-04
   41.5200005       1.41198601E-04
   41.6399994       1.35203387E-04
   41.7599983       1.29464766E-04
   41.8800011       1.23981357E-04
   42.0000000       1.18751406E-04
   42.1199989       1.13772709E-04
   42.2400017       1.09042667E-04
   42.3600006       1.04558247E-04
   42.4799995       1.00316058E-04
   42.5999985       9.63124548E-05
   42.7200012       9.25435379E-05
   42.8400002       8.90051451E-05
   42.9599991       8.56928818E-05
   43.0800018       8.26020841E-05
   43.2000008       7.97278262E-05
   43.3199997       7.70649349E-05
   43.4399986       7.46080768E-05
   43.5600014       7.23517587E-05
   43.6800003       7.02904290E-05
   43.7999992       6.84184270E-05
   43.9199982       6.67300046E-05
   44.0400009       6.52192612E-05
   44.1599998       6.38801284E-05
   44.2799988       6.27064001E-05
   44.4000015       6.16916732E-05
   44.5200005       6.08295086E-05
   44.6399994       6.01134270E-05
   44.7599983       5.95369929E-05
   44.8800011       5.90938289E-05
   45.0000000       5.87776049E-05
   45.1199989       5.85819907E-05
   45.2400017       5.85006346E-05
   45.3600006       5.85271337E-05
   45.4799995       5.86550632E-05
   45.5999985       5.88779985E-05
   45.7200012       5.91895987E-05
   45.8400002       5.95836391E-05
   45.9599991       6.00540552E-05
   46.0800018       6.05949026E-05
   46.2000008       6.12003569E-05
   46.3199997       6.18646372E-05
   46.4399986       6.25820030E-05
   46.5600014       6.33467716E-05
   46.6800003       6.41533625E-05
   46.7999992       6.49964059E-05
   46.9199982       6.58707504E-05
   47.0400009       6.67715285E-05
   47.1599998       6.76941490E-05
   47.2799988       6.86341737E-05
   47.4000015       6.95872659E-05
   47.5200005       7.05490966E-05
   47.6399994       7.15153437E-05
   47.7599983       7.24817073E-05
   47.8800011       7.34439964E-05
   48.0000000       7.43982455E-05
   48.1199989       7.53407512E-05
   48.2400017       7.62681302E-05
   48.3600006       7.71772902E-05
   48.4799995       7.80653572E-05
   48.5999985       7.89296391E-05
   48.7200012       7.97675675E-05
   48.8400002       8.05767122E-05
   48.9599991       8.13547740E-05
   49.0800018       8.20996574E-05
   49.2000008       8.28094344E-05
   49.3199997       8.34823950E-05
   49.4399986       8.41169385E-05
   49.5600014       8.47115734E-05
   49.6800003       8.52648518E-05
   49.7999992       8.57754058E-05
   49.9199982       8.62419838E-05
   50.0400009       8.66635164E-05
   50.1599998       8.70391668E-05
   50.2799988       8.73683530E-05
   50.4000015       8.76507329E-05
   50.5200005       8.78861028E-05
   50.6399994       8.80743901E-05
   50.7599983       8.82155582E-05
   50.8800011       8.83096072E-05
   51.0000000       8.83565954E-05
   51.1199989       8.83566536E-05
   51.2400017       8.83100147E-05
   51.3600006       8.82170789E-05
   51.4799995       8.80783700E-05
   51.5999985       8.78945721E-05
   51.7200012       8.76664344E-05
   51.8400002       8.73947793E-05
   51.9599991       8.70804579E-05
   52.0800018       8.67243580E-05
   52.2000008       8.63274108E-05
   52.3199997       8.58905551E-05
   52.4399986       8.54148166E-05
   52.5600014       8.49012868E-05
   52.6800003       8.43511370E-05
   52.7999992       8.37656044E-05
   52.9199982       8.31459911E-05
   53.0400009       8.24936069E-05
   53.1599998       8.18097978E-05
   53.2799988       8.10958809E-05
   53.4000015       8.03531802E-05
   53.5200005       7.95830492E-05
   53.6399994       7.87868848E-05
   53.7599983       7.79661423E-05
   53.8800011       7.71223058E-05
   54.0000000       7.62568598E-05
   54.1199989       7.53712229E-05
   54.2400017       7.44667414E-05
   54.3600006       7.35446520E-05
   54.4799995       7.26061553E-05
   54.5999985       7.16524519E-05
   54.7200012       7.06848077E-05
   54.8400002       6.97045907E-05
   54.9599991       6.87132415E-05
   55.0800018       6.77122225E-05
   55.2000008       6.67029599E-05
   55.3199997       6.56867487E-05
   55.4399986       6.46647677E-05
   55.5600014       6.36380864E-05
   55.6800003       6.26077453E-05
   55.7999992       6.15747631E-05
   55.9199982       6.05401983E-05
   56.0400009       5.95051279E-05
   56.1599998       5.84705849E-05
   56.2799988       5.74375372E-05
   56.4000015       5.64068796E-05
   56.5200005       5.53794489E-05
   56.6399994       5.43560964E-05
   56.7599983       5.33376879E-05
   56.8800011       5.23251401E-05
   57.0000000       5.13193700E-05
   57.1199989       5.03212068E-05
   57.2400017       4.93313601E-05
   57.3600006       4.83503791E-05
   57.4799995       4.73787077E-05
   57.5999985       4.64167315E-05
   57.7200012       4.54648762E-05
   57.8400002       4.45236292E-05
   57.9599991       4.35935399E-05
   58.0800018       4.26751467E-05
   58.2000008       4.17689080E-05
   58.3199997       4.08751584E-05
   58.4399986       3.99941200E-05
   58.5600014       3.91259309E-05
   58.6800003       3.82707549E-05
   58.7999992       3.74288138E-05
   58.9199982       3.66004169E-05
   59.0400009       3.57858844E-05
   59.1599998       3.49855000E-05
   59.2799988       3.41994419E-05
   59.4000015       3.34277356E-05
   59.5200005       3.26702975E-05
   59.6399994       3.19269930E-05
   59.7599983       3.11976946E-05
   59.8800011       3.04823225E-05
   60.0000000       2.97808383E-05
   60.1199989       2.90932076E-05
   60.2400017       2.84193593E-05
   60.3600006       2.77591644E-05
   60.4799995       2.71124482E-05
   60.5999985       2.64790378E-05
   60.7200012       2.58587843E-05
   60.8400002       2.52515747E-05
   60.9599991       2.46573254E-05
   61.0800018       2.40759109E-05
   61.2000008       2.35071475E-05
   61.3199997       2.29507496E-05
   61.4399986       2.24063715E-05
   61.5600014       2.18736368E-05
   61.6800003       2.13522071E-05
   61.7999992       2.08418023E-05
   61.9199982       2.03422060E-05
   62.0400009       1.98532289E-05
   62.1599998       1.93746691E-05
   62.2799988       1.89062630E-05
   62.4000015       1.84476794E-05
   62.5200005       1.79985491E-05
   62.6399994       1.75584773E-05
   62.7599983       1.71271058E-05
   62.8800011       1.67041071E-05
   63.0000000       1.62891956E-05
   63.1199989       1.58821094E-05
   63.2400017       1.54825975E-05
   63.3600006       1.50904079E-05
   63.4799995       1.47052842E-05
   63.5999985       1.43269644E-05
   63.7200012       1.39551776E-05
   63.8400002       1.35896344E-05
   63.9599991       1.32300247E-05
   64.0800018       1.28760212E-05
   64.1999969       1.25272900E-05
   64.3199997       1.21835164E-05
   64.4400024       1.18444195E-05
   64.5599976       1.15097619E-05
   64.6800003       1.11793315E-05
   64.8000031       1.08529139E-05
   64.9199982       1.05302643E-05
   65.0400009       1.02110953E-05
   65.1600037       9.89509772E-06
   65.2799988       9.58198598E-06
   65.4000015       9.27154360E-06
   65.5199966       8.96364963E-06
   65.6399994       8.65827496E-06
   65.7600021       8.35543779E-06
   65.8799973       8.05513446E-06
   66.0000000       7.75728040E-06
   66.1200027       7.46167780E-06
   66.2399979       7.16803606E-06
   66.3600006       6.87601914E-06
   66.4800034       6.58531371E-06
   66.5999985       6.29568376E-06
   66.7200012       6.00698922E-06
   66.8399963       5.71917326E-06
   66.9599991       5.43222131E-06
   67.0800018       5.14611838E-06
   67.1999969       4.86082763E-06
   67.3199997       4.57628403E-06
   67.4400024       4.29241481E-06
   67.5599976       4.00916497E-06
   67.6800003       3.72651107E-06
   67.8000031       3.44446289E-06
   67.9199982       3.16304522E-06
   68.0400009       2.88227716E-06
   68.1600037       2.60214938E-06
   68.2799988       2.32261664E-06
   68.4000015       2.04360413E-06
   68.5199966       1.76502090E-06
   68.6399994       1.48678407E-06
   68.7600021       1.20883385E-06
   68.8799973       9.31148179E-07
   69.0000000       6.53743825E-07
   69.1200027       3.76673739E-07
   69.2399979       1.00014887E-07
   69.3600006      -1.76144766E-07
   69.4800034      -4.51720808E-07
   69.5999985      -7.26642554E-07
   69.7200012      -1.00085379E-06
   69.8399963      -1.27430553E-06
   69.9599991      -1.54694487E-06
   70.0800018      -1.81870280E-06
   70.1999969      -2.08949245E-06
   70.3199997      -2.35921675E-06
   70.4400024      -2.62778781E-06
   70.5599976      -2.89514810E-06
   70.6800003      -3.16128421E-06
   70.8000031      -3.42622229E-06
   70.9199982      -3.69000281E-06
   71.0400009      -3.95264487E-06
   71.1600037      -4.21411005E-06
   71.2799988      -4.47428329E-06
   71.4000015      -4.73298314E-06
   71.5199966      -4.98999361E-06
   71.6399994      -5.24511370E-06
   71.7600021      -5.49819561E-06
   71.8799973      -5.74916476E-06
   72.0000000      -5.99800796E-06
   72.1200027      -6.24473751E-06
   72.2399979      -6.48934611E-06
   72.3600006      -6.73178238E-06
   72.4800034      -6.97194218E-06
   72.5999985      -7.20970047E-06
   72.7200012      -7.44494537E-06