  -30.0000000       0.00000000    
  -29.8799992       0.00000000    
  -29.7600002       0.00000000    
  -29.6399994       0.00000000    
  -29.5200005       0.00000000    
  -29.3999996       0.00000000    
  -29.2800007       0.00000000    
  -29.1599998       4.10421930E-29
  -29.0400009       3.01838771E-28
  -28.9200001       3.11248070E-28
  -28.7999992      -6.80286528E-27
  -28.6800003      -5.20279282E-26
  -28.5599995      -2.17686635E-25
  -28.4400005      -6.33002106E-25
  -28.3199997      -1.33941157E-24
  -28.2000008      -1.93289322E-24
  -28.0799999      -1.09686494E-24
  -27.9599991       3.42195278E-24
  -27.8400002       1.35000070E-23
  -27.7199993       2.75932911E-23
  -27.6000004       3.75401676E-23
  -27.4799995       2.95415030E-23
  -27.3600006      -5.73574414E-24
  -27.2399998      -5.47290428E-23
  -27.1200008      -6.86381815E-23
  -27.0000000       1.38718461E-23
  -26.8799992       1.82545481E-22
  -26.7600002       2.25377561E-22
  -26.6399994      -3.45375144E-22
  -26.5200005      -2.11436392E-21
  -26.3999996      -5.12843256E-21
  -26.2800007      -7.81404244E-21
  -26.1599998      -5.96208925E-21
  -26.0400009       7.01096154E-21
  -25.9200001       3.68648776E-20
  -25.7999992       8.12789738E-20
  -25.6800003       1.19736384E-19
  -25.5599995       1.06025090E-19
  -25.4400005      -2.62887175E-20
  -25.3199997      -3.33122616E-19
  -25.2000008      -7.97861506E-19
  -25.0799999      -1.25101845E-18
  -24.9599991      -1.31513983E-18
  -24.8400002      -4.48864855E-19
  -24.7199993       1.83064541E-18
  -24.6000004       5.51859832E-18
  -24.4799995       9.58477006E-18
  -24.3600006       1.16070248E-17
  -24.2399998       8.01271331E-18
  -24.1200008      -4.64313476E-18
  -24.0000000      -2.72517300E-17
  -23.8799992      -5.51470131E-17
  -23.7600002      -7.59851287E-17
  -23.6399994      -7.06388354E-17
  -23.5200005      -1.90703843E-17
  -23.3999996       8.84099440E-17
  -23.2800007       2.37095825E-16
  -23.1599998       3.77276839E-16
  -23.0400009       4.25779534E-16
  -22.9200001       2.87414452E-16
  -22.7999992      -1.02005087E-16
  -22.6800003      -7.20379340E-16
  -22.5599995      -1.41369577E-15
  -22.4400005      -1.89016101E-15
  -22.3199997      -1.78090350E-15
  -22.2000008      -7.74752767E-16
  -22.0799999       1.19900034E-15
  -21.9599991       3.80367726E-15
  -21.8400002       6.23249257E-15
  -21.7199993       7.33127429E-15
  -21.6000004       5.93824857E-15
  -21.4799995       1.38604459E-15
  -21.3600006      -5.98620334E-15
  -21.2399998      -1.45297796E-14
  -21.1200008      -2.14059354E-14
  -21.0000000      -2.32403106E-14
  -20.8799992      -1.72397056E-14
  -20.7600002      -2.48388558E-15
  -20.6399994       1.90572977E-14
  -20.5200005       4.22592090E-14
  -20.3999996       5.96546331E-14
  -20.2800007       6.33299023E-14
  -20.1599998       4.75163596E-14
  -20.0400009       1.11487764E-14
  -19.9200001      -4.04874837E-14
  -19.7999992      -9.57727753E-14
  -19.6800003      -1.38787067E-13
  -19.5599995      -1.53140995E-13
  -19.4400005      -1.26795493E-13
  -19.3199997      -5.66338561E-14
  -19.2000008       4.85790810E-14
  -19.0799999       1.67991882E-13
  -18.9599991       2.71804362E-13
  -18.8400002       3.27556938E-13
  -18.7199993       3.08519161E-13
  -18.6000004       2.02359261E-13
  -18.4799995       1.77961283E-14
  -18.3600006      -2.13068454E-13
  -18.2399998      -4.38423739E-13
  -18.1200008      -5.96842833E-13
  -18.0000000      -6.32429764E-13
  -17.8799992      -5.11768199E-13
  -17.7600002      -2.38006365E-13
  -17.6399994       1.42879374E-13
  -17.5200005       5.47317291E-13
  -17.3999996       8.71679248E-13
  -17.2800007       1.01907989E-12
  -17.1599998       9.28679226E-13
  -17.0400009       5.98558041E-13
  -16.9200001       9.37285799E-14
  -16.7999992      -4.65599293E-13
  -16.6800003      -9.34459324E-13
  -16.5599995      -1.18468885E-12
  -16.4400005      -1.14513466E-12
  -16.3199997      -8.26884730E-13
  -16.2000008      -3.23501696E-13
  -16.0799999       2.16060473E-13
  -15.9600000       6.34665443E-13
  -15.8400002       8.19153176E-13
  -15.7200003       7.39046302E-13
  -15.6000004       4.56775568E-13
  -15.4799995       1.03895171E-13
  -15.3599997      -1.69577948E-13
  -15.2399998      -2.54371421E-13
  -15.1199999      -1.26345223E-13
  -15.0000000       1.43329752E-13
  -14.8800001       4.19059617E-13
  -14.7600002       5.62633436E-13
  -14.6400003       5.00919239E-13
  -14.5200005       2.68395224E-13
  -14.3999996       3.16224425E-16
  -14.2799997      -1.28815348E-13
  -14.1599998      -2.11440261E-15
  -14.0400000       3.47538486E-13
  -13.9200001       6.96998449E-13
  -13.8000002       6.78351310E-13
  -13.6800003      -8.56685938E-14
  -13.5600004      -1.79121008E-12
  -13.4399996      -4.27524465E-12
  -13.3199997      -6.92919420E-12
  -13.1999998      -8.76600095E-12
  -13.0799999      -8.65712016E-12
  -12.9600000      -5.69556208E-12
  -12.8400002       4.14268554E-13
  -12.7200003       9.06864167E-12
  -12.6000004       1.86966241E-11
  -12.4799995       2.69781922E-11
  -12.3599997       3.13331062E-11
  -12.2399998       2.95785237E-11
  -12.1199999       2.05883453E-11
  -12.0000000       4.76654697E-12
  -11.8800001      -1.58195280E-11
  -11.7600002      -3.77174368E-11
  -11.6400003      -5.67407892E-11
  -11.5200005      -6.88471710E-11
  -11.3999996      -7.10246861E-11
  -11.2799997      -6.19554685E-11
  -11.1599998      -4.22795271E-11
  -11.0400000      -1.43926425E-11
  -10.9200001       1.81508159E-11
  -10.8000002       5.14377325E-11
  -10.6800003       8.19415855E-11
  -10.5600004       1.06975449E-10
  -10.4399996       1.24719762E-10
  -10.3199997       1.33854483E-10
  -10.1999998       1.32991548E-10
  -10.0799999       1.20210911E-10
  -9.96000004       9.30047220E-11
  -9.84000015       4.88116908E-11
  -9.72000027      -1.38904730E-11
  -9.60000038      -9.42031106E-11
  -9.47999954      -1.87573790E-10
  -9.35999966      -2.85180463E-10
  -9.23999977      -3.74259873E-10
  -9.11999989      -4.39431297E-10
  -9.00000000      -4.64742883E-10
  -8.88000011      -4.35916997E-10
  -8.76000023      -3.42188389E-10
  -8.64000034      -1.77260470E-10
  -8.52000046       6.07912679E-11
  -8.39999962       3.70469239E-10
  -8.27999973       7.48164364E-10
  -8.15999985       1.18923471E-09
  -8.03999996       1.68839842E-09
  -7.92000008       2.23931984E-09
  -7.80000019       2.83365864E-09
  -7.67999983       3.46014573E-09
  -7.55999994       4.10431511E-09
  -7.44000006       4.74932138E-09
  -7.32000017       5.37787592E-09
  -7.19999981       5.97487837E-09
  -7.07999992       6.53001475E-09
  -6.96000004       7.03953651E-09
  -6.84000015       7.50667617E-09
  -6.71999979       7.94060462E-09
  -6.59999990       8.35432967E-09
  -6.48000002       8.76226469E-09
  -6.36000013       9.17826437E-09
  -6.23999977       9.61468505E-09
  -6.11999989       1.00825996E-08
  -6.00000000       1.05928386E-08
  -5.88000011       1.11572085E-08
  -5.76000023       1.17892069E-08
  -5.63999987       1.25037696E-08
  -5.51999998       1.33159954E-08
  -5.40000010       1.42391476E-08
  -5.28000021       1.52825805E-08
  -5.15999985       1.64501728E-08
  -5.03999996       1.77397759E-08
  -4.92000008       1.91437781E-08
  -4.80000019       2.06506758E-08
  -4.67999983       2.22472458E-08
  -4.55999994       2.39209150E-08
  -4.44000006       2.56619757E-08
  -4.32000017       2.74654219E-08
  -4.19999981       2.93323108E-08
  -4.07999992       3.12705737E-08
  -3.96000004       3.32952297E-08
  -3.83999991       3.54278420E-08
  -3.72000003       3.76950666E-08
  -3.59999990       4.01263343E-08
  -3.48000002       4.27507771E-08
  -3.35999990       4.55939961E-08
  -3.24000001       4.86752718E-08
  -3.11999989       5.20062109E-08
  -3.00000000       5.55914426E-08
  -2.88000011       5.94316667E-08
  -2.75999999       6.35286739E-08
  -2.64000010       6.78913423E-08
  -2.51999998       7.25409421E-08
  -2.40000010       7.75141160E-08
  -2.27999997       8.28620941E-08
  -2.16000009       8.86457485E-08
  -2.03999996       9.49271524E-08
  -1.91999996       1.01759547E-07
  -1.79999995       1.09178210E-07
  -1.67999995       1.17194993E-07
  -1.55999994       1.25798280E-07
  -1.44000006       1.34958782E-07
  -1.32000005       1.44639870E-07
  -1.20000005       1.54809840E-07
  -1.08000004       1.65452647E-07
 -0.959999979       1.76574318E-07
 -0.839999974       1.88203231E-07
 -0.720000029       2.00384690E-07
 -0.600000024       2.13171816E-07
 -0.479999989       2.26615853E-07
 -0.360000014       2.40759078E-07
 -0.239999995       2.55632983E-07
 -0.119999997       2.71261399E-07
  -1.11022302E-15   2.87668115E-07
  0.119999997       3.04885646E-07
  0.239999995       3.22961995E-07
  0.360000014       3.41963499E-07
  0.479999989       3.61972184E-07
  0.600000024       3.83078856E-07
  0.720000029       4.05373868E-07
  0.839999974       4.28938506E-07
  0.959999979       4.53838936E-07
   1.08000004       4.80124413E-07
   1.20000005       5.07829327E-07
   1.32000005       5.36977836E-07
   1.44000006       5.67589780E-07
   1.55999994       5.99685450E-07
   1.67999995       6.33290199E-07
   1.79999995       6.68436826E-07
   1.91999996       7.05168361E-07
   2.03999996       7.43539999E-07
   2.16000009       7.83621203E-07
   2.27999997       8.25497125E-07
   2.40000010       8.69268035E-07
   2.51999998       9.15045916E-07
   2.64000010       9.62947979E-07
   2.75999999       1.01308865E-06
   2.88000011       1.06557127E-06
   3.00000000       1.12048212E-06
   3.11999989       1.17788909E-06
   3.24000001       1.23784525E-06
   3.35999990       1.30039700E-06
   3.48000002       1.36559277E-06
   3.59999990       1.43349223E-06
   3.72000003       1.50416963E-06
   3.83999991       1.57771410E-06
   3.96000004       1.65422273E-06
   4.07999992       1.73379351E-06
   4.19999981       1.81651569E-06
   4.32000017       1.90246681E-06
   4.44000006       1.99171063E-06
   4.55999994       2.08430356E-06
   4.67999983       2.18030118E-06
   4.80000019       2.27976716E-06
   4.92000008       2.38277903E-06
   5.03999996       2.48943093E-06
   5.15999985       2.59983040E-06
   5.28000021       2.71409203E-06
   5.40000010       2.83233089E-06
   5.51999998       2.95465293E-06
   5.63999987       3.08115204E-06
   5.76000023       3.21190691E-06
   5.88000011       3.34698279E-06
   6.00000000       3.48643266E-06
   6.11999989       3.63030176E-06
   6.23999977       3.77862784E-06
   6.36000013       3.93144546E-06
   6.48000002       4.08878304E-06
   6.59999990       4.25066446E-06
   6.71999979       4.41711245E-06
   6.84000015       4.58814975E-06
   6.96000004       4.76380546E-06
   7.07999992       4.94412006E-06
   7.19999981       5.12914448E-06
   7.32000017       5.31893966E-06
   7.44000006       5.51356061E-06
   7.55999994       5.71304918E-06
   7.67999983       5.91741673E-06
   7.80000019       6.12663234E-06
   7.92000008       6.34062326E-06
   8.03999996       6.55928352E-06
   8.15999985       6.78249080E-06
   8.27999973       7.01013278E-06
   8.39999962       7.24212441E-06
   8.52000046       7.47841932E-06
   8.64000034       7.71901250E-06
   8.76000023       7.96391942E-06
   8.88000011       8.21315643E-06
   9.00000000       8.46671992E-06
   9.11999989       8.72455985E-06
   9.23999977       8.98657981E-06
   9.35999966       9.25263339E-06
   9.47999954       9.52253322E-06
   9.60000038       9.79606557E-06
   9.72000027       1.00730040E-05
   9.84000015       1.03531120E-05
   9.96000004       1.06361549E-05
   10.0799999       1.09218972E-05
   10.1999998       1.12101006E-05
   10.3199997       1.15005278E-05
   10.4399996       1.17929367E-05
   10.5600004       1.20870764E-05
   10.6800003       1.23826758E-05
   10.8000002       1.26794348E-05
   10.9200001       1.29770187E-05
   11.0400000       1.32750520E-05
   11.1599998       1.35731252E-05
   11.2799997       1.38708056E-05
   11.3999996       1.41676546E-05
   11.5200005       1.44632386E-05
   11.6400003       1.47571354E-05
   11.7600002       1.50489295E-05
   11.8800001       1.53382007E-05
   12.0000000       1.56244951E-05
   12.1199999       1.59073243E-05
   12.2399998       1.61861517E-05
   12.3599997       1.64603953E-05
   12.4799995       1.67294329E-05
   12.6000004       1.69926298E-05
   12.7200003       1.72493401E-05
   12.8400002       1.74989218E-05
   12.9600000       1.77407273E-05
   13.0799999       1.79741055E-05
   13.1999998       1.81983833E-05
   13.3199997       1.84128639E-05
   13.4399996       1.86168381E-05
   13.5600004       1.88095764E-05
   13.6800003       1.89903330E-05
   13.8000002       1.91583749E-05
   13.9200001       1.93129654E-05
   14.0400000       1.94533641E-05
   14.1599998       1.95788070E-05
   14.2799997       1.96885012E-05
   14.3999996       1.97816044E-05
   14.5200005       1.98572161E-05
   14.6400003       1.99143906E-05
   14.7600002       1.99521328E-05
   14.8800001       1.99694186E-05
   15.0000000       1.99652095E-05
   15.1199999       1.99384649E-05
   15.2399998       1.98881444E-05
   15.3599997       1.98132129E-05
   15.4799995       1.97126465E-05
   15.6000004       1.95854282E-05
   15.7200003       1.94305449E-05
   15.8400002       1.92469943E-05
   15.9600000       1.90337614E-05
   16.0799999       1.87898204E-05
   16.2000008       1.85141089E-05
   16.3199997       1.82055082E-05
   16.4400005       1.78628470E-05
   16.5599995       1.74848828E-05
   16.6800003       1.70703170E-05
   16.7999992       1.66178161E-05
   16.9200001       1.61260486E-05
   17.0400009       1.55936996E-05
   17.1599998       1.50195019E-05
   17.2800007       1.44022297E-05
   17.3999996       1.37406923E-05
   17.5200005       1.30337212E-05
   17.6399994       1.22801348E-05
   17.7600002       1.14787263E-05
   17.8799992       1.06282432E-05
   18.0000000       9.72737689E-06
   18.1200008       8.77476577E-06
   18.2399998       7.76899924E-06
   18.3600006       6.70862255E-06
   18.4799995       5.59215323E-06
   18.6000004       4.41809334E-06
   18.7199993       3.18494722E-06
   18.8400002       1.89123944E-06
   18.9599991       5.35524521E-07
   19.0799999      -8.83612984E-07
   19.2000008      -2.36756841E-06
   19.3199997      -3.91773756E-06
   19.4400005      -5.53553627E-06
   19.5599995      -7.22241612E-06
   19.6800003      -8.97985956E-06
   19.7999992      -1.08093691E-05
   19.9200001      -1.27124440E-05
   20.0400009      -1.46905559E-05
   20.1599998      -1.67451417E-05
   20.2800007      -1.88776212E-05
   20.3999996      -2.10894104E-05
   20.5200005      -2.33819701E-05
   20.6399994      -2.57568208E-05
   20.7600002      -2.82155470E-05
   20.8799992      -3.07597802E-05
   21.0000000      -3.33911667E-05
   21.1200008      -3.61113161E-05
   21.2399998      -3.89217785E-05
   21.3600006      -4.18240379E-05
   21.4799995      -4.48195096E-05
   21.6000004      -4.79095834E-05
   21.7199993      -5.10956597E-05
   21.8400002      -5.43791684E-05
   21.9599991      -5.77615683E-05
   22.0799999      -6.12443546E-05
   22.2000008      -6.48290152E-05
   22.3199997      -6.85170453E-05
   22.4400005      -7.23099147E-05
   22.5599995      -7.62090349E-05
   22.6800003      -8.02158320E-05
   22.7999992      -8.43317102E-05
   22.9200001      -8.85580521E-05
   23.0400009      -9.28961890E-05
   23.1599998      -9.73474307E-05
   23.2800007      -1.01913014E-04
   23.3999996      -1.06594169E-04
   23.5200005      -1.11392052E-04
   23.6399994      -1.16307812E-04
   23.7600002      -1.21342600E-04
   23.8799992      -1.26497558E-04
   24.0000000      -1.31773777E-04
   24.1200008      -1.37172334E-04
   24.2399998      -1.42694204E-04
   24.3600006      -1.48340332E-04
   24.4799995      -1.54111578E-04
   24.6000004      -1.60008713E-04
   24.7199993      -1.66032478E-04
   24.8400002      -1.72183616E-04
   24.9599991      -1.78462782E-04
   25.0799999      -1.84870587E-04
   25.2000008      -1.91407569E-04
   25.3199997      -1.98074136E-04
   25.4400005      -2.04870637E-04
   25.5599995      -2.11797291E-04
   25.6800003      -2.18854242E-04
   25.7999992      -2.26041549E-04
   25.9200001      -2.33359184E-04
   26.0400009      -2.40807087E-04
   26.1599998      -2.48385099E-04
   26.2800007      -2.56092986E-04
   26.3999996      -2.63930473E-04
   26.5200005      -2.71897035E-04
   26.6399994      -2.79992149E-04
   26.7600002      -2.88215117E-04
   26.8799992      -2.96565064E-04
   27.0000000      -3.05041001E-04
   27.1200008      -3.13641736E-04
   27.2399998      -3.22366104E-04
   27.3600006      -3.31212621E-04
   27.4799995      -3.40179802E-04
   27.6000004      -3.49265989E-04
   27.7199993      -3.58469406E-04
   27.8400002      -3.67788220E-04
   27.9599991      -3.77220364E-04
   28.0799999      -3.86763684E-04
   28.2000008      -3.96415795E-04
   28.3199997      -4.06174164E-04
   28.4400005      -4.16036055E-04
   28.5599995      -4.25998587E-04
   28.6800003      -4.36058734E-04
   28.7999992      -4.46213322E-04
   28.9200001      -4.56459034E-04
   29.0400009      -4.66792320E-04
   29.1599998      -4.77209542E-04
   29.2800007      -4.87706886E-04
   29.3999996      -4.98280220E-04
   29.5200005      -5.08925412E-04
   29.6399994      -5.19637892E-04
   29.7600002      -5.30413119E-04
   29.8799992      -5.41246322E-04
   30.0000000      -5.52132376E-04
   30.1200008      -5.63066336E-04
   30.2399998      -5.74042846E-04
   30.3600006      -5.85056376E-04
   30.4799995      -5.96101338E-04
   30.6000004      -6.07171969E-04
   30.7199993      -6.18262333E-04
   30.8400002      -6.29366084E-04
   30.9599991      -6.40476996E-04
   31.0799999      -6.51588372E-04
   31.2000008      -6.62693405E-04
   31.3199997      -6.73785340E-04
   31.4400005      -6.84857019E-04
   31.5599995      -6.95901166E-04
   31.6800003      -7.06910680E-04
   31.7999992      -7.17877934E-04
   31.9200001      -7.28795363E-04
   32.0400009      -7.39655108E-04
   32.1599998      -7.50449195E-04
   32.2799988      -7.61169416E-04
   32.4000015      -7.71807623E-04
   32.5200005      -7.82355492E-04
   32.6399994      -7.92804640E-04
   32.7599983      -8.03146453E-04
   32.8800011      -8.13372433E-04
   33.0000000      -8.23473616E-04
   33.1199989      -8.33441329E-04
   33.2400017      -8.43266433E-04
   33.3600006      -8.52939847E-04
   33.4799995      -8.62452493E-04
   33.5999985      -8.71795346E-04
   33.7200012      -8.80959211E-04
   33.8400002      -8.89935007E-04
   33.9599991      -8.98713537E-04
   34.0800018      -9.07285663E-04
   34.2000008      -9.15642129E-04
   34.3199997      -9.23773623E-04
   34.4399986      -9.31670947E-04
   34.5600014      -9.39325022E-04
   34.6800003      -9.46726592E-04
   34.7999992      -9.53866635E-04
   34.9199982      -9.60736128E-04
   35.0400009      -9.67326225E-04
   35.1599998      -9.73628077E-04
   35.2799988      -9.79632721E-04
   35.4000015      -9.85331601E-04
   35.5200005      -9.90716275E-04
   35.6399994      -9.95778129E-04
   35.7599983      -1.00050925E-03
   35.8800011      -1.00490171E-03
   36.0000000      -1.00894750E-03
   36.1199989      -1.01263879E-03
   36.2400017      -1.01596827E-03
   36.3600006      -1.01892836E-03
   36.4799995      -1.02151209E-03
   36.5999985      -1.02371268E-03
   36.7200012      -1.02552376E-03
   36.8400002      -1.02693902E-03
   36.9599991      -1.02795276E-03
   37.0800018      -1.02855940E-03
   37.2000008      -1.02875370E-03
   37.3199997      -1.02853053E-03
   37.4399986      -1.02788559E-03
   37.5600014      -1.02681410E-03
   37.6800003      -1.02531235E-03
   37.7999992      -1.02337624E-03
   37.9199982      -1.02100277E-03
   38.0400009      -1.01818901E-03
   38.1599998      -1.01493264E-03
   38.2799988      -1.01123145E-03
   38.4000015      -1.00708369E-03
   38.5200005      -1.00248831E-03
   38.6399994      -9.97444731E-04
   38.7599983      -9.91952722E-04
   38.8800011      -9.86012630E-04
   39.0000000      -9.79625154E-04
   39.1199989      -9.72791400E-04
   39.2400017      -9.65513056E-04
   39.3600006      -9.57792101E-04
   39.4799995      -9.49631154E-04
   39.5999985      -9.41033068E-04
   39.7200012      -9.32001451E-04
   39.8400002      -9.22540203E-04
   39.9599991      -9.12653748E-04
   40.0800018      -9.02346976E-04
   40.2000008      -8.91625474E-04
   40.3199997      -8.80495121E-04
   40.4399986      -8.68962379E-04
   40.5600014      -8.57034000E-04
   40.6800003      -8.44717550E-04
   40.7999992      -8.32020654E-04
   40.9199982      -8.18951870E-04
   41.0400009      -8.05519929E-04
   41.1599998      -7.91734201E-04
   41.2799988      -7.77604466E-04
   41.4000015      -7.63140968E-04
   41.5200005      -7.48354127E-04
   41.6399994      -7.33254943E-04
   41.7599983      -7.17854826E-04
   41.8800011      -7.02165300E-04
   42.0000000      -6.86198589E-04
   42.1199989      -6.69967209E-04
   42.2400017      -6.53484021E-04
   42.3600006      -6.36762357E-04
   42.4799995      -6.19816012E-04
   42.5999985      -6.02658722E-04
   42.7200012      -5.85304690E-04
   42.8400002      -5.67768526E-04
   42.9599991      -5.50064782E-04
   43.0800018      -5.32208185E-04
   43.2000008      -5.14214160E-04
   43.3199997      -4.96097899E-04
   43.4399986      -4.77875117E-04
   43.5600014      -4.59561503E-04
   43.6800003      -4.41172830E-04
   43.7999992      -4.22725105E-04
   43.9199982      -4.04234190E-04
   44.0400009      -3.85716121E-04
   44.1599998      -3.67187022E-04
   44.2799988      -3.48663103E-04
   44.4000015      -3.30160488E-04
   44.5200005      -3.11695418E-04
   44.6399994      -2.93284014E-04
   44.7599983      -2.74942227E-04
   44.8800011      -2.56685948E-04
   45.0000000      -2.38530920E-04
   45.1199989      -2.20492744E-04
   45.2400017      -2.02586860E-04
   45.3600006      -1.84828590E-04
   45.4799995      -1.67233098E-04
   45.5999985      -1.49815241E-04
   45.7200012      -1.32589659E-04
   45.8400002      -1.15570627E-04
   45.9599991      -9.87720850E-05
   46.0800018      -8.22076472E-05
   46.2000008      -6.58906574E-05
   46.3199997      -4.98340887E-05
   46.4399986      -3.40505940E-05
   46.5600014      -1.85524314E-05
   46.6800003      -3.35143659E-06
   46.7999992       1.15410021E-05
   46.9199982       2.61139467E-05
   47.0400009       4.03569175E-05
   47.1599998       5.42599046E-05
   47.2799988       6.78133583E-05
   47.4000015       8.10082274E-05
   47.5200005       9.38359808E-05
   47.6399994       1.06288622E-04
   47.7599983       1.18358752E-04
   47.8800011       1.30039494E-04
   48.0000000       1.41324592E-04
   48.1199989       1.52208348E-04
   48.2400017       1.62685508E-04
   48.3600006       1.72751417E-04
   48.4799995       1.82401927E-04
   48.5999985       1.91633459E-04
   48.7200012       2.00443043E-04
   48.8400002       2.08828293E-04
   48.9599991       2.16787506E-04
   49.0800018       2.24319563E-04
   49.2000008       2.31424041E-04
   49.3199997       2.38100969E-04
   49.4399986       2.44350929E-04
   49.5600014       2.50175130E-04
   49.6800003       2.55574996E-04
   49.7999992       2.60552770E-04
   49.9199982       2.65111012E-04
   50.0400009       2.69252923E-04
   50.1599998       2.72982230E-04
   50.2799988       2.76303239E-04
   50.4000015       2.79220869E-04
   50.5200005       2.81740417E-04
   50.6399994       2.83867703E-04
   50.7599983       2.85608927E-04
   50.8800011       2.86970724E-04
   51.0000000       2.87960138E-04
   51.1199989       2.88584648E-04
   51.2400017       2.88851996E-04
   51.3600006       2.88770447E-04
   51.4799995       2.88348499E-04
   51.5999985       2.87595118E-04
   51.7200012       2.86519382E-04
   51.8400002       2.85130780E-04
   51.9599991       2.83439149E-04
   52.0800018       2.81454501E-04
   52.2000008       2.79187167E-04
   52.3199997       2.76647741E-04
   52.4399986       2.73846992E-04
   52.5600014       2.70795892E-04
   52.6800003       2.67505471E-04
   52.7999992       2.63986964E-04
   52.9199982       2.60251574E-04
   53.0400009       2.56310654E-04
   53.1599998       2.52175669E-04
   53.2799988       2.47857941E-04
   53.4000015       2.43368981E-04
   53.5200005       2.38720269E-04
   53.6399994       2.33923347E-04
   53.7599983       2.28989767E-04
   53.8800011       2.23930969E-04
   54.0000000       2.18758403E-04
   54.1199989       2.13483421E-04
   54.2400017       2.08117213E-04
   54.3600006       2.02670883E-04
   54.4799995       1.97155328E-04
   54.5999985       1.91581275E-04
   54.7200012       1.85959259E-04
   54.8400002       1.80299670E-04
   54.9599991       1.74612622E-04
   55.0800018       1.68908096E-04
   55.2000008       1.63195858E-04
   55.3199997       1.57485483E-04
   55.4399986       1.51786269E-04
   55.5600014       1.46107312E-04
   55.6800003       1.40457414E-04
   55.7999992       1.34845177E-04
   55.9199982       1.29278837E-04
   56.0400009       1.23766309E-04
   56.1599998       1.18315191E-04
   56.2799988       1.12932743E-04
   56.4000015       1.07625870E-04
   56.5200005       1.02401151E-04
   56.6399994       9.72648486E-05
   56.7599983       9.22229374E-05
   56.8800011       8.72810706E-05
   57.0000000       8.24446397E-05
   57.1199989       7.77186797E-05
   57.2400017       7.31079199E-05
   57.3600006       6.86167259E-05
   57.4799995       6.42490922E-05
   57.5999985       6.00086641E-05
   57.7200012       5.58987304E-05
   57.8400002       5.19222340E-05
   57.9599991       4.80818017E-05
   58.0800018       4.43797471E-05
   58.2000008       4.08180858E-05
   58.3199997       3.73985058E-05
   58.4399986       3.41224004E-05
   58.5600014       3.09908646E-05
   58.6800003       2.80046879E-05
   58.7999992       2.51643905E-05
   58.9199982       2.24702144E-05
   59.0400009       1.99221340E-05
   59.1599998       1.75198638E-05
   59.2799988       1.52628381E-05
   59.4000015       1.31502202E-05
   59.5200005       1.11809150E-05
   59.6399994       9.35359003E-06
   59.7599983       7.66670200E-06
   59.8800011       6.11852238E-06
   60.0000000       4.70714940E-06
   60.1199989       3.43049669E-06
   60.2400017       2.28628005E-06
   60.3600006       1.27199871E-06
   60.4799995       3.84934566E-07
   60.5999985      -3.77825330E-07
   60.7200012      -1.01934427E-06
   60.8400002      -1.54278246E-06
   60.9599991      -1.95135658E-06
   61.0800018      -2.24832183E-06
   61.2000008      -2.43698560E-06
   61.3199997      -2.52073892E-06
   61.4399986      -2.50309131E-06
   61.5600014      -2.38768644E-06
   61.6800003      -2.17829302E-06
   61.7999992      -1.87877026E-06
   61.9199982      -1.49302389E-06
   62.0400009      -1.02496927E-06
   62.1599998      -4.78516426E-07
   62.2799988       1.42425748E-07
   62.4000015       8.33934905E-07
   62.5200005       1.59206593E-06
   62.6399994       2.41285602E-06
   62.7599983       3.29234877E-06
   62.8800011       4.22662424E-06
   63.0000000       5.21182255E-06
   63.1199989       6.24414588E-06
   63.2400017       7.31984983E-06
   63.3600006       8.43522048E-06
   63.4799995       9.58656437E-06
   63.5999985       1.07702172E-05
   63.7200012       1.19825636E-05
   63.8400002       1.32200721E-05
   63.9599991       1.44793112E-05
   64.0800018       1.57569539E-05
   64.1999969       1.70497678E-05
   64.3199997       1.83545799E-05
   64.4400024       1.96682740E-05
   64.5599976       2.09877926E-05
   64.6800003       2.23101542E-05
   64.8000031       2.36325068E-05
   64.9199982       2.49521436E-05
   65.0400009       2.62665035E-05
   65.1600037       2.75731654E-05
   65.2799988       2.88697902E-05
   65.4000015       3.01541113E-05
   65.5199966       3.14239041E-05
   65.6399994       3.26770351E-05
   65.7600021       3.39114595E-05
   65.8799973       3.51252784E-05
   66.0000000       3.63167528E-05
   66.1200027       3.74842675E-05
   66.2399979       3.86263127E-05
   66.3600006       3.97414442E-05
   66.4800034       4.08282503E-05
   66.5999985       4.18853779E-05
   66.7200012       4.29115644E-05
   66.8399963       4.39056857E-05
   66.9599991       4.48667997E-05
   67.0800018       4.57941496E-05
   67.1999969       4.66871279E-05
   67.3199997       4.75452434E-05
   67.4400024       4.83680560E-05
   67.5599976       4.91551400E-05
   67.6800003       4.99060661E-05
   67.8000031       5.06204342E-05
   67.9199982       5.12978913E-05
   68.0400009       5.19381611E-05
   68.1600037       5.25410833E-05
   68.2799988       5.31066289E-05
   68.4000015       5.36348889E-05
   68.5199966       5.41260597E-05
   68.6399994       5.45804032E-05
   68.7600021       5.49982396E-05
   68.8799973       5.53799291E-05
   69.0000000       5.57258609E-05
   69.1200027       5.60364715E-05
   69.2399979       5.63122449E-05
   69.3600006       5.65537339E-05
   69.4800034       5.67615571E-05
   69.5999985       5.69364092E-05
   69.7200012       5.70789962E-05
   69.8399963       5.71900309E-05
   69.9599991       5.72702120E-05
   70.0800018       5.73202160E-05
   70.1999969       5.73406942E-05
   70.3199997       5.73323523E-05
   70.4400024       5.72959507E-05
   70.5599976       5.72323406E-05
   70.6800003       5.71424716E-05
   70.8000031       5.70273623E-05
   70.9199982       5.68880423E-05
   71.0400009       5.67255192E-05
   71.1600037       5.65407463E-05
   71.2799988       5.63345966E-05
   71.4000015       5.61079105E-05
   71.5199966       5.58615138E-05
   71.6399994       5.55962579E-05
   71.7600021       5.53130376E-05
   71.8799973       5.50127770E-05
   72.0000000       5.46964257E-05
   72.1200027       5.43649185E-05
   72.2399979       5.40191650E-05
   72.3600006       5.36600492E-05
   72.4800034       5.32884369E-05
   72.5999985       5.29051940E-05
   72.7200012       5.25111864E-05