  -30.0000000       0.00000000    
  -29.8799992       0.00000000    
  -29.7600002       0.00000000    
  -29.6399994       0.00000000    
  -29.5200005       0.00000000    
  -29.3999996       0.00000000    
  -29.2800007       0.00000000    
  -29.1599998       0.00000000    
  -29.0400009       0.00000000    
  -28.9200001       0.00000000    
  -28.7999992       1.68155816E-44
  -28.6800003       1.61010763E-38
  -28.5599995       3.72944017E-37
  -28.4400005       3.74214544E-36
  -28.3199997       2.19430831E-35
  -28.2000008       8.04553104E-35
  -28.0799999       1.57566018E-34
  -27.9599991      -1.13158344E-34
  -27.8400002      -2.06451669E-33
  -27.7199993      -7.96454581E-33
  -27.6000004      -1.64681719E-32
  -27.4799995      -6.96130987E-33
  -27.3600006       8.62736270E-32
  -27.2399998       3.72529535E-31
  -27.1200008       8.65838670E-31
  -27.0000000       1.05266836E-30
  -26.8799992      -8.15693962E-31
  -26.7600002      -8.01237638E-30
  -26.6399994      -2.33058092E-29
  -26.5200005      -4.18795994E-29
  -26.3999996      -3.84410381E-29
  -26.2800007       4.41780885E-29
  -26.1599998       2.82735640E-28
  -26.0400009       7.01796161E-28
  -25.9200001       1.11662683E-27
  -25.7999992       9.30815616E-28
  -25.6800003      -9.32212975E-28
  -25.5599995      -5.61713107E-27
  -25.4400005      -1.30572904E-26
  -25.3199997      -1.97892306E-26
  -25.2000008      -1.67921139E-26
  -25.0799999       1.02170930E-26
  -24.9599991       7.43675754E-26
  -24.8400002       1.72141504E-25
  -24.7199993       2.60594136E-25
  -24.6000004       2.38869473E-25
  -24.4799995      -4.20672434E-26
  -24.3600006      -7.10882942E-25
  -24.2399998      -1.73051095E-24
  -24.1200008      -2.70315653E-24
  -24.0000000      -2.73147920E-24
  -23.8799992      -5.26322720E-25
  -23.7600002       5.02333727E-24
  -23.6399994       1.37273520E-23
  -23.5200005       2.26712234E-23
  -23.3999996       2.52747279E-23
  -23.2800007       1.21081613E-23
  -23.1599998      -2.52253531E-23
  -23.0400009      -8.67683950E-23
  -22.9200001      -1.55253948E-22
  -22.7999992      -1.90346154E-22
  -22.6800003      -1.33367766E-22
  -22.5599995       7.06192006E-23
  -22.4400005       4.32180766E-22
  -22.3199997       8.68761988E-22
  -22.2000008       1.17302804E-21
  -22.0799999       1.03400666E-21
  -21.9599991       1.42387488E-22
  -21.8400002      -1.61699300E-21
  -21.7199993      -3.93515344E-21
  -21.6000004      -5.92303203E-21
  -21.4799995      -6.18009173E-21
  -21.3600006      -3.21316734E-21
  -21.2399998       3.78655860E-21
  -21.1200008       1.40034149E-20
  -21.0000000       2.43125443E-20
  -20.8799992       2.93966645E-20
  -20.7600002       2.31095975E-20
  -20.6399994       1.12502531E-21
  -20.5200005      -3.57525426E-20
  -20.3999996      -7.89338198E-20
  -20.2800007      -1.11743312E-19
  -20.1599998      -1.12865473E-19
  -20.0400009      -6.37872445E-20
  -19.9200001       4.13130704E-20
  -19.7999992       1.86623669E-19
  -19.6800003       3.31116935E-19
  -19.5599995       4.14148731E-19
  -19.4400005       3.71576485E-19
  -19.3199997       1.59858379E-19
  -19.2000008      -2.18399851E-19
  -19.0799999      -6.96510116E-19
  -18.9599991      -1.14223499E-18
  -18.8400002      -1.37839981E-18
  -18.7199993      -1.22571210E-18
  -18.6000004      -5.61703457E-19
  -18.4799995       6.15821956E-19
  -18.3600006       2.13663130E-18
  -18.2399998       3.63588727E-18
  -18.1200008       4.58195938E-18
  -18.0000000       4.37209746E-18
  -17.8799992       2.50412883E-18
  -17.7600002      -1.18971857E-18
  -17.6399994      -6.29652240E-18
  -17.5200005      -1.16559269E-17
  -17.3999996      -1.53951927E-17
  -17.2800007      -1.52791012E-17
  -17.1599998      -9.41446598E-18
  -17.0400009       2.79366831E-18
  -16.9200001       1.97180932E-17
  -16.7999992       3.70500317E-17
  -16.6800003       4.82566350E-17
  -16.5599995       4.62189814E-17
  -16.4400005       2.59019383E-17
  -16.3199997      -1.26367820E-17
  -16.2000008      -6.20651679E-17
  -16.0799999      -1.07734193E-16
  -15.9600000      -1.30688237E-16
  -15.8400002      -1.13664529E-16
  -15.7200003      -4.86795294E-17
  -15.6000004       5.64230153E-17
  -15.4799995       1.75592908E-16
  -15.3599997       2.68800427E-16
  -15.2399998       2.93309484E-16
  -15.1199999       2.19593053E-16
  -15.0000000       4.67784732E-17
  -14.8800001      -1.88835818E-16
  -14.7600002      -4.17640130E-16
  -14.6400003      -5.54789852E-16
  -14.5200005      -5.28962705E-16
  -14.3999996      -3.12935846E-16
  -14.2799997       5.58563105E-17
  -14.1599998       4.75408994E-16
  -14.0400000       8.04563880E-16
  -13.9200001       9.09161332E-16
  -13.8000002       7.14838474E-16
  -13.6800003       2.46624945E-16
  -13.5600004      -3.63280255E-16
  -13.4399996      -9.08944597E-16
  -13.3199997      -1.17968004E-15
  -13.1999998      -1.04310255E-15
  -13.0799999      -5.10768490E-16
  -12.9600000       2.43998534E-16
  -12.8400002       9.32409316E-16
  -12.7200003       1.25324528E-15
  -12.6000004       1.01994138E-15
  -12.4799995       2.62488152E-16
  -12.3599997      -7.44165772E-16
  -12.2399998      -1.55210762E-15
  -12.1199999      -1.70276397E-15
  -12.0000000      -9.29334586E-16
  -11.8800001       6.77944260E-16
  -11.7600002       2.62136898E-15
  -11.6400003       4.10622388E-15
  -11.5200005       4.30152341E-15
  -11.3999996       2.67719247E-15
  -11.2799997      -7.01704328E-16
  -11.1599998      -5.04950306E-15
  -11.0400000      -8.98718305E-15
  -10.9200001      -1.09242898E-14
  -10.8000002      -9.60085927E-15
  -10.6800003      -4.61797365E-15
  -10.5600004       3.23906818E-15
  -10.4399996       1.20370819E-14
  -10.3199997       1.91371238E-14
  -10.1999998       2.19517787E-14
  -10.0799999       1.88040908E-14
  -9.96000004       9.61122780E-15
  -9.84000015      -3.85918121E-15
  -9.72000027      -1.82982207E-14
  -9.60000038      -2.96954369E-14
  -9.47999954      -3.44948848E-14
  -9.35999966      -3.07270655E-14
  -9.23999977      -1.87499078E-14
  -9.11999989      -1.32422876E-15
  -9.00000000       1.70604108E-14
  -8.88000011       3.14567098E-14
  -8.76000023       3.79652669E-14
  -8.64000034       3.50015495E-14
  -8.52000046       2.38853770E-14
  -8.39999962       8.49857040E-15
  -8.27999973      -5.95365694E-15
  -8.15999985      -1.47313988E-14
  -8.03999996      -1.53251689E-14
  -7.92000008      -8.56733253E-15
  -7.80000019       1.38368973E-15
  -7.67999983       8.31777545E-15
  -7.55999994       6.20580213E-15
  -7.44000006      -8.28938460E-15
  -7.32000017      -3.38907674E-14
  -7.19999981      -6.41455612E-14
  -7.07999992      -8.86193110E-14
  -6.96000004      -9.56856935E-14
  -6.84000015      -7.61948217E-14
  -6.71999979      -2.69380787E-14
  -6.59999990       4.72062439E-14
  -6.48000002       1.33231601E-13
  -6.36000013       2.12254368E-13
  -6.23999977       2.63571879E-13
  -6.11999989       2.69517617E-13
  -6.00000000       2.19889916E-13
  -5.88000011       1.14890627E-13
  -5.76000023      -3.40453678E-14
  -5.63999987      -2.05587554E-13
  -5.51999998      -3.71599344E-13
  -5.40000010      -5.01316707E-13
  -5.28000021      -5.65959118E-13
  -5.15999985      -5.43279289E-13
  -5.03999996      -4.21729871E-13
  -4.92000008      -2.03948498E-13
  -4.80000019       9.08928626E-14
  -4.67999983       4.26590837E-13
  -4.55999994       7.52144332E-13
  -4.44000006       1.00744673E-12
  -4.32000017       1.13255358E-12
  -4.19999981       1.07962315E-12
  -4.07999992       8.25447783E-13
  -3.96000004       3.81568041E-13
  -3.83999991      -2.01261032E-13
  -3.72000003      -8.36723215E-13
  -3.59999990      -1.41544480E-12
  -3.48000002      -1.82471703E-12
  -3.35999990      -1.97151280E-12
  -3.24000001      -1.80340682E-12
  -3.11999989      -1.32198690E-12
  -3.00000000      -5.84979764E-13
  -2.88000011       3.03754689E-13
  -2.75999999       1.21383188E-12
  -2.64000010       2.01230959E-12
  -2.51999998       2.58568861E-12
  -2.40000010       2.85462908E-12
  -2.27999997       2.77892596E-12
  -2.16000009       2.35391784E-12
  -2.03999996       1.60265583E-12
  -1.91999996       5.69409483E-13
  -1.79999995      -6.81083987E-13
  -1.67999995      -2.05760365E-12
  -1.55999994      -3.43295249E-12
  -1.44000006      -4.63779969E-12
  -1.32000005      -5.46578928E-12
  -1.20000005      -5.69563927E-12
  -1.08000004      -5.13084323E-12
 -0.959999979      -3.65097622E-12
 -0.839999974      -1.26280692E-12
 -0.720000029       1.86353016E-12
 -0.600000024       5.38659655E-12
 -0.479999989       8.82163786E-12
 -0.360000014       1.16036538E-11
 -0.239999995       1.31757088E-11
 -0.119999997       1.30858848E-11
  -1.11022302E-15   1.10735943E-11
  0.119999997       7.12826109E-12
  0.239999995       1.50973526E-12
  0.360000014      -5.27158222E-12
  0.479999989      -1.25087093E-11
  0.600000024      -1.93743094E-11
  0.720000029      -2.50056226E-11
  0.839999974      -2.85868256E-11
  0.959999979      -2.94223951E-11
   1.08000004      -2.70004748E-11
   1.20000005      -2.10488502E-11
   1.32000005      -1.15864766E-11
   1.44000006       1.02982325E-12
   1.55999994       1.60696439E-11
   1.67999995       3.24162468E-11
   1.79999995       4.85916481E-11
   1.91999996       6.28322533E-11
   2.03999996       7.32192917E-11
   2.16000009       7.78554027E-11
   2.27999997       7.50639759E-11
   2.40000010       6.35767203E-11
   2.51999998       4.26708044E-11
   2.64000010       1.22233812E-11
   2.75999999      -2.73324245E-11
   2.88000011      -7.51438495E-11
   3.00000000      -1.30138358E-10
   3.11999989      -1.91243021E-10
   3.24000001      -2.57575433E-10
   3.35999990      -3.28569172E-10
   3.48000002      -4.04017264E-10
   3.59999990      -4.84043139E-10
   3.72000003      -5.69028435E-10
   3.83999991      -6.59537092E-10
   3.96000004      -7.56268770E-10
   4.07999992      -8.60054195E-10
   4.19999981      -9.71881242E-10
   4.32000017      -1.09291853E-09
   4.44000006      -1.22449528E-09
   4.55999994      -1.36800538E-09
   4.67999983      -1.52473445E-09
   4.80000019      -1.69563530E-09
   4.92000008      -1.88111837E-09
   5.03999996      -2.08092588E-09
   5.15999985      -2.29415598E-09
   5.28000021      -2.51946330E-09
   5.40000010      -2.75541501E-09
   5.51999998      -3.00092950E-09
   5.63999987      -3.25570082E-09
   5.76000023      -3.52049523E-09
   5.88000011      -3.79725806E-09
   6.00000000      -4.08900203E-09
   6.11999989      -4.39952208E-09
   6.23999977      -4.73302686E-09
   6.36000013      -5.09379161E-09
   6.48000002      -5.48592505E-09
   6.59999990      -5.91328497E-09
   6.71999979      -6.37952891E-09
   6.84000015      -6.88821222E-09
   6.96000004      -7.44284945E-09
   7.07999992      -8.04685296E-09
   7.19999981      -8.70332340E-09
   7.32000017      -9.41472944E-09
   7.44000006      -1.01825979E-08
   7.55999994      -1.10073461E-08
   7.67999983      -1.18883605E-08
   7.80000019      -1.28243940E-08
   7.92000008      -1.38142395E-08
   8.03999996      -1.48575436E-08
   8.15999985      -1.59555871E-08
   8.27999973      -1.71118426E-08
   8.39999962      -1.83321696E-08
   8.52000046      -1.96246255E-08
   8.64000034      -2.09989324E-08
   8.76000023      -2.24657679E-08
   8.88000011      -2.40360709E-08
   9.00000000      -2.57204729E-08
   9.11999989      -2.75290120E-08
   9.23999977      -2.94710727E-08
   9.35999966      -3.15555013E-08
   9.47999954      -3.37907764E-08
   9.60000038      -3.61851420E-08
   9.72000027      -3.87466841E-08
   9.84000015      -4.14832897E-08
   9.96000004      -4.44026682E-08
   10.0799999      -4.75124473E-08
   10.1999998      -5.08204216E-08
   10.3199997      -5.43349472E-08
   10.4399996      -5.80654103E-08
   10.5600004      -6.20226217E-08
   10.6800003      -6.62190800E-08
   10.8000002      -7.06689747E-08
   10.9200001      -7.53879874E-08
   11.0400000      -8.03929652E-08
   11.1599998      -8.57016573E-08
   11.2799997      -9.13325024E-08
   11.3999996      -9.73047207E-08
   11.5200005      -1.03638442E-07
   11.6400003      -1.10354883E-07
   11.7600002      -1.17476397E-07
   11.8800001      -1.25026190E-07
   12.0000000      -1.33027768E-07
   12.1199999      -1.41504202E-07
   12.2399998      -1.50477433E-07
   12.3599997      -1.59967797E-07
   12.4799995      -1.69994195E-07
   12.6000004      -1.80574801E-07
   12.7200003      -1.91728333E-07
   12.8400002      -2.03475395E-07
   12.9600000      -2.15839918E-07
   13.0799999      -2.28849913E-07
   13.1999998      -2.42537567E-07
   13.3199997      -2.56938790E-07
   13.4399996      -2.72091995E-07
   13.5600004      -2.88036944E-07
   13.6800003      -3.04813796E-07
   13.8000002      -3.22462625E-07
   13.9200001      -3.41023565E-07
   14.0400000      -3.60537683E-07
   14.1599998      -3.81047698E-07
   14.2799997      -4.02598687E-07
   14.3999996      -4.25238341E-07
   14.5200005      -4.49016397E-07
   14.6400003      -4.73983704E-07
   14.7600002      -5.00191049E-07
   14.8800001      -5.27688030E-07
   15.0000000      -5.56522650E-07
   15.1199999      -5.86741635E-07
   15.2399998      -6.18391027E-07
   15.3599997      -6.51518008E-07
   15.4799995      -6.86171632E-07
   15.6000004      -7.22404536E-07
   15.7200003      -7.60273167E-07
   15.8400002      -7.99837437E-07
   15.9600000      -8.41160556E-07
   16.0799999      -8.84307838E-07
   16.2000008      -9.29346072E-07
   16.3199997      -9.76343017E-07
   16.4400005      -1.02536694E-06
   16.5599995      -1.07648748E-06
   16.6800003      -1.12977500E-06
   16.7999992      -1.18530147E-06
   16.9200001      -1.24313965E-06
   17.0400009      -1.30336366E-06
   17.1599998      -1.36604876E-06
   17.2800007      -1.43127068E-06
   17.3999996      -1.49910636E-06
   17.5200005      -1.56963335E-06
   17.6399994      -1.64293010E-06
   17.7600002      -1.71907595E-06
   17.8799992      -1.79815106E-06
   18.0000000      -1.88023535E-06
   18.1200008      -1.96540827E-06
   18.2399998      -2.05374818E-06
   18.3600006      -2.14533293E-06
   18.4799995      -2.24023847E-06
   18.6000004      -2.33854053E-06
   18.7199993      -2.44031480E-06
   18.8400002      -2.54563724E-06
   18.9599991      -2.65458425E-06
   19.0799999      -2.76723222E-06
   19.2000008      -2.88365663E-06
   19.3199997      -3.00393208E-06
   19.4400005      -3.12813177E-06
   19.5599995      -3.25632755E-06
   19.6800003      -3.38859149E-06
   19.7999992      -3.52499615E-06
   19.9200001      -3.66561721E-06
   20.0400009      -3.81053337E-06
   20.1599998      -3.95982443E-06
   20.2800007      -4.11357178E-06
   20.3999996      -4.27185250E-06
   20.5200005      -4.43473982E-06
   20.6399994      -4.60229876E-06
   20.7600002      -4.77458389E-06
   20.8799992      -4.95164113E-06
   21.0000000      -5.13351006E-06
   21.1200008      -5.32022568E-06
   21.2399998      -5.51181984E-06
   21.3600006      -5.70832754E-06
   21.4799995      -5.90978198E-06
   21.6000004      -6.11621772E-06
   21.7199993      -6.32766842E-06
   21.8400002      -6.54416181E-06
   21.9599991      -6.76571881E-06
   22.0799999      -6.99235216E-06
   22.2000008      -7.22406230E-06
   22.3199997      -7.46084470E-06
   22.4400005      -7.70268707E-06
   22.5599995      -7.94957396E-06
   22.6800003      -8.20148307E-06
   22.7999992      -8.45839531E-06
   22.9200001      -8.72028431E-06
   23.0400009      -8.98712005E-06
   23.1599998      -9.25886616E-06
   23.2800007      -9.53547442E-06
   23.3999996      -9.81688845E-06
   23.5200005      -1.01030391E-05
   23.6399994      -1.03938482E-05
   23.7600002      -1.06892267E-05
   23.8799992      -1.09890761E-05
   24.0000000      -1.12932948E-05
   24.1200008      -1.16017736E-05
   24.2399998      -1.19143988E-05
   24.3600006      -1.22310530E-05
   24.4799995      -1.25516117E-05
   24.6000004      -1.28759430E-05
   24.7199993      -1.32039013E-05
   24.8400002      -1.35353284E-05
   24.9599991      -1.38700534E-05
   25.0799999      -1.42078870E-05
   25.2000008      -1.45486256E-05
   25.3199997      -1.48920535E-05
   25.4400005      -1.52379453E-05
   25.5599995      -1.55860653E-05
   25.6800003      -1.59361771E-05
   25.7999992      -1.62880351E-05
   25.9200001      -1.66413975E-05
   26.0400009      -1.69960094E-05
   26.1599998      -1.73516073E-05
   26.2800007      -1.77079110E-05
   26.3999996      -1.80646293E-05
   26.5200005      -1.84214441E-05
   26.6399994      -1.87780261E-05
   26.7600002      -1.91340314E-05
   26.8799992      -1.94891072E-05
   27.0000000      -1.98429025E-05
   27.1200008      -2.01950643E-05
   27.2399998      -2.05452452E-05
   27.3600006      -2.08931015E-05
   27.4799995      -2.12382929E-05
   27.6000004      -2.15804685E-05
   27.7199993      -2.19192643E-05
   27.8400002      -2.22542949E-05
   27.9599991      -2.25851527E-05
   28.0799999      -2.29113994E-05
   28.2000008      -2.32325783E-05
   28.3199997      -2.35482130E-05
   28.4400005      -2.38578141E-05
   28.5599995      -2.41608832E-05
   28.6800003      -2.44569310E-05
   28.7999992      -2.47454682E-05
   28.9200001      -2.50260055E-05
   29.0400009      -2.52980644E-05
   29.1599998      -2.55611612E-05
   29.2800007      -2.58148157E-05
   29.3999996      -2.60585275E-05
   29.5200005      -2.62917947E-05
   29.6399994      -2.65141025E-05
   29.7600002      -2.67249288E-05
   29.8799992      -2.69237480E-05
   30.0000000      -2.71100307E-05
   30.1200008      -2.72832531E-05
   30.2399998      -2.74428858E-05
   30.3600006      -2.75884086E-05
   30.4799995      -2.77192976E-05
   30.6000004      -2.78350253E-05
   30.7199993      -2.79350570E-05
   30.8400002      -2.80188488E-05
   30.9599991      -2.80858458E-05
   31.0799999      -2.81354878E-05
   31.2000008      -2.81671983E-05
   31.3199997      -2.81804005E-05
   31.4400005      -2.81745233E-05
   31.5599995      -2.81489883E-05
   31.6800003      -2.81032335E-05
   31.7999992      -2.80366967E-05
   31.9200001      -2.79488268E-05
   32.0400009      -2.78390780E-05
   32.1599998      -2.77069048E-05
   32.2799988      -2.75517687E-05
   32.4000015      -2.73731348E-05
   32.5200005      -2.71704739E-05
   32.6399994      -2.69432530E-05
   32.7599983      -2.66909519E-05
   32.8800011      -2.64130576E-05
   33.0000000      -2.61090554E-05
   33.1199989      -2.57784432E-05
   33.2400017      -2.54207207E-05
   33.3600006      -2.50353878E-05
   33.4799995      -2.46219533E-05
   33.5999985      -2.41799262E-05
   33.7200012      -2.37088225E-05
   33.8400002      -2.32081638E-05
   33.9599991      -2.26774864E-05
   34.0800018      -2.21163318E-05
   34.2000008      -2.15242599E-05
   34.3199997      -2.09008394E-05
   34.4399986      -2.02456522E-05
   34.5600014      -1.95582870E-05
   34.6800003      -1.88383419E-05
   34.7999992      -1.80854095E-05
   34.9199982      -1.72990840E-05
   35.0400009      -1.64789526E-05
   35.1599998      -1.56246024E-05
   35.2799988      -1.47356222E-05
   35.4000015      -1.38116129E-05
   35.5200005      -1.28521888E-05
   35.6399994      -1.18569897E-05
   35.7599983      -1.08256763E-05
   35.8800011      -9.75794501E-06
   36.0000000      -8.65351194E-06
   36.1199989      -7.51211746E-06
   36.2400017      -6.33351601E-06
   36.3600006      -5.11747339E-06
   36.4799995      -3.86376178E-06
   36.5999985      -2.57215606E-06
   36.7200012      -1.24243093E-06
   36.8400002       1.25637712E-07
   36.9599991       1.53227359E-06
   37.0800018       2.97769861E-06
   37.2000008       4.46212698E-06
   37.3199997       5.98576617E-06
   37.4399986       7.54880648E-06
   37.5600014       9.15142118E-06
   37.6800003       1.07937631E-05
   37.7999992       1.24759563E-05
   37.9199982       1.41981036E-05
   38.0400009       1.59602732E-05
   38.1599998       1.77625152E-05
   38.2799988       1.96048550E-05
   38.4000015       2.14872871E-05
   38.5200005       2.34097988E-05
   38.6399994       2.53723574E-05
   38.7599983       2.73749138E-05
   38.8800011       2.94174115E-05
   39.0000000       3.14997851E-05
   39.1199989       3.36219637E-05
   39.2400017       3.57838580E-05
   39.3600006       3.79853918E-05
   39.4799995       4.02264632E-05
   39.5999985       4.25069702E-05
   39.7200012       4.48267929E-05
   39.8400002       4.71857711E-05
   39.9599991       4.95837230E-05
   40.0800018       5.20204267E-05
   40.2000008       5.44956310E-05
   40.3199997       5.70090378E-05
   40.4399986       5.95603451E-05
   40.5600014       6.21492363E-05
   40.6800003       6.47753695E-05
   40.7999992       6.74384282E-05
   40.9199982       7.01380632E-05
   41.0400009       7.28739396E-05
   41.1599998       7.56456720E-05
   41.2799988       7.84528747E-05
   41.4000015       8.12951039E-05
   41.5200005       8.41718866E-05
   41.6399994       8.70827062E-05
   41.7599983       9.00270097E-05
   41.8800011       9.30042297E-05
   42.0000000       9.60137841E-05
   42.1199989       9.90550470E-05
   42.2400017       1.02127437E-04
   42.3600006       1.05230327E-04
   42.4799995       1.08363100E-04
   42.5999985       1.11525114E-04
   42.7200012       1.14715716E-04
   42.8400002       1.17934214E-04
   42.9599991       1.21179895E-04
   43.0800018       1.24451966E-04
   43.2000008       1.27749590E-04
   43.3199997       1.31071938E-04
   43.4399986       1.34418093E-04
   43.5600014       1.37787138E-04
   43.6800003       1.41178112E-04
   43.7999992       1.44590100E-04
   43.9199982       1.48022111E-04
   44.0400009       1.51473185E-04
   44.1599998       1.54942361E-04
   44.2799988       1.58428607E-04
   44.4000015       1.61930846E-04
   44.5200005       1.65448015E-04
   44.6399994       1.68978950E-04
   44.7599983       1.72522501E-04
   44.8800011       1.76077432E-04
   45.0000000       1.79642520E-04
   45.1199989       1.83216471E-04
   45.2400017       1.86797974E-04
   45.3600006       1.90385734E-04
   45.4799995       1.93978398E-04
   45.5999985       1.97574627E-04
   45.7200012       2.01173010E-04
   45.8400002       2.04772165E-04
   45.9599991       2.08370649E-04
   46.0800018       2.11967010E-04
   46.2000008       2.15559732E-04
   46.3199997       2.19147318E-04
   46.4399986       2.22728195E-04
   46.5600014       2.26300763E-04
   46.6800003       2.29863363E-04
   46.7999992       2.33414321E-04
   46.9199982       2.36951935E-04
   47.0400009       2.40474488E-04
   47.1599998       2.43980234E-04
   47.2799988       2.47467397E-04
   47.4000015       2.50934128E-04
   47.5200005       2.54378625E-04
   47.6399994       2.57798965E-04
   47.7599983       2.61193258E-04
   47.8800011       2.64559581E-04
   48.0000000       2.67895957E-04
   48.1199989       2.71200493E-04
   48.2400017       2.74471095E-04
   48.3600006       2.77705840E-04
   48.4799995       2.80902692E-04
   48.5999985       2.84059584E-04
   48.7200012       2.87174480E-04
   48.8400002       2.90245312E-04
   48.9599991       2.93269870E-04
   49.0800018       2.96246028E-04
   49.2000008       2.99171486E-04
   49.3199997       3.02044034E-04
   49.4399986       3.04861314E-04
   49.5600014       3.07621027E-04
   49.6800003       3.10320815E-04
   49.7999992       3.12958378E-04
   49.9199982       3.15531419E-04
   50.0400009       3.18037550E-04
   50.1599998       3.20474559E-04
   50.2799988       3.22840031E-04
   50.4000015       3.25131579E-04
   50.5200005       3.27346876E-04
   50.6399994       3.29483475E-04
   50.7599983       3.31538991E-04
   50.8800011       3.33510950E-04
   51.0000000       3.35396937E-04
   51.1199989       3.37194506E-04
   51.2400017       3.38901184E-04
   51.3600006       3.40514525E-04
   51.4799995       3.42031970E-04
   51.5999985       3.43451131E-04
   51.7200012       3.44769534E-04
   51.8400002       3.45984707E-04
   51.9599991       3.47094145E-04
   52.0800018       3.48095433E-04
   52.2000008       3.48986126E-04
   52.3199997       3.49763752E-04
   52.4399986       3.50425951E-04
   52.5600014       3.50970280E-04
   52.6800003       3.51394323E-04
   52.7999992       3.51695751E-04
   52.9199982       3.51872179E-04
   53.0400009       3.51921277E-04
   53.1599998       3.51840747E-04
   53.2799988       3.51628347E-04
   53.4000015       3.51281837E-04
   53.5200005       3.50798975E-04
   53.6399994       3.50177666E-04
   53.7599983       3.49415728E-04
   53.8800011       3.48511094E-04
   54.0000000       3.47461755E-04
   54.1199989       3.46265646E-04
   54.2400017       3.44920845E-04
   54.3600006       3.43425432E-04
   54.4799995       3.41777544E-04
   54.5999985       3.39975377E-04
   54.7200012       3.38017271E-04
   54.8400002       3.35901510E-04
   54.9599991       3.33626493E-04
   55.0800018       3.31190735E-04
   55.2000008       3.28592811E-04
   55.3199997       3.25831352E-04
   55.4399986       3.22905107E-04
   55.5600014       3.19812912E-04
   55.6800003       3.16553691E-04
   55.7999992       3.13126424E-04
   55.9199982       3.09530238E-04
   56.0400009       3.05764348E-04
   56.1599998       3.01828026E-04
   56.2799988       2.97720690E-04
   56.4000015       2.93441874E-04
   56.5200005       2.88991112E-04
   56.6399994       2.84368230E-04
   56.7599983       2.79573171E-04
   56.8800011       2.74605845E-04
   57.0000000       2.69466516E-04
   57.1199989       2.64155417E-04
   57.2400017       2.58672924E-04
   57.3600006       2.53019622E-04
   57.4799995       2.47196062E-04
   57.5999985       2.41203059E-04
   57.7200012       2.35041516E-04
   57.8400002       2.28712481E-04
   57.9599991       2.22217190E-04
   58.0800018       2.15557040E-04
   58.2000008       2.08733603E-04
   58.3199997       2.01748669E-04
   58.4399986       1.94604130E-04
   58.5600014       1.87302096E-04
   58.6800003       1.79844821E-04
   58.7999992       1.72234693E-04
   58.9199982       1.64474288E-04
   59.0400009       1.56566341E-04
   59.1599998       1.48513718E-04
   59.2799988       1.40319476E-04
   59.4000015       1.31986832E-04
   59.5200005       1.23519174E-04
   59.6399994       1.14920069E-04
   59.7599983       1.06193249E-04
   59.8800011       9.73426213E-05
   60.0000000       8.83722896E-05
   60.1199989       7.92865103E-05
   60.2400017       7.00897435E-05
   60.3600006       6.07865913E-05
   60.4799995       5.13818522E-05
   60.5999985       4.18804630E-05
   60.7200012       3.22875385E-05
   60.8400002       2.26083866E-05
   60.9599991       1.28484817E-05
   61.0800018       3.01346563E-06
   61.2000008      -6.89085482E-06
   61.3199997      -1.68585193E-05
   61.4399986      -2.68834410E-05
   61.5600014      -3.69594127E-05
   61.6800003      -4.70800805E-05
   61.7999992      -5.72389617E-05
   61.9199982      -6.74294279E-05
   62.0400009      -7.76447268E-05
   62.1599998      -8.78779319E-05
   62.2799988      -9.81220364E-05
   62.4000015      -1.08369873E-04
   62.5200005      -1.18614204E-04
   62.6399994      -1.28847707E-04
   62.7599983      -1.39062977E-04
   62.8800011      -1.49252490E-04
   63.0000000      -1.59408693E-04
   63.1199989      -1.69523933E-04
   63.2400017      -1.79590497E-04
   63.3600006      -1.89600614E-04
   63.4799995      -1.99546441E-04
   63.5999985      -2.09420134E-04
   63.7200012      -2.19213791E-04
   63.8400002      -2.28919525E-04
   63.9599991      -2.38529436E-04
   64.0800018      -2.48035620E-04
   64.1999969      -2.57430191E-04
   64.3199997      -2.66705290E-04
   64.4400024      -2.75853003E-04
   64.5599976      -2.84865499E-04
   64.6800003      -2.93734920E-04
   64.8000031      -3.02453496E-04
   64.9199982      -3.11013544E-04
   65.0400009      -3.19407467E-04
   65.1600037      -3.27627757E-04
   65.2799988      -3.35667166E-04
   65.4000015      -3.43518419E-04
   65.5199966      -3.51174443E-04
   65.6399994      -3.58628196E-04
   65.7600021      -3.65872838E-04
   65.8799973      -3.72901588E-04
   66.0000000      -3.79707984E-04
   66.1200027      -3.86285566E-04
   66.2399979      -3.92628252E-04
   66.3600006      -3.98730015E-04
   66.4800034      -4.04585182E-04
   66.5999985      -4.10188222E-04
   66.7200012      -4.15533839E-04
   66.8399963      -4.20616969E-04
   66.9599991      -4.25432692E-04
   67.0800018      -4.29976441E-04
   67.1999969      -4.34243906E-04
   67.3199997      -4.38231044E-04
   67.4400024      -4.41934040E-04
   67.5599976      -4.45349462E-04
   67.6800003      -4.48474137E-04
   67.8000031      -4.51305183E-04
   67.9199982      -4.53840039E-04
   68.0400009      -4.56076494E-04
   68.1600037      -4.58012655E-04
   68.2799988      -4.59646923E-04
   68.4000015      -4.60978015E-04
   68.5199966      -4.62005060E-04
   68.6399994      -4.62727417E-04
   68.7600021      -4.63144854E-04
   68.8799973      -4.63257515E-04
   69.0000000      -4.63065837E-04
   69.1200027      -4.62570635E-04
   69.2399979      -4.61773161E-04
   69.3600006      -4.60675015E-04
   69.4800034      -4.59278148E-04
   69.5999985      -4.57584887E-04
   69.7200012      -4.55597765E-04
   69.8399963      -4.53319721E-04
   69.9599991      -4.50754043E-04
   70.0800018      -4.47904313E-04
   70.1999969      -4.44774429E-04
   70.3199997      -4.41368669E-04
   70.4400024      -4.37691691E-04
   70.5599976      -4.33748384E-04
   70.6800003      -4.29544045E-04
   70.8000031      -4.25084319E-04
   70.9199982      -4.20375174E-04
   71.0400009      -4.15422954E-04
   71.1600037      -4.10234265E-04
   71.2799988      -4.04815946E-04
   71.4000015      -3.99175216E-04
   71.5199966      -3.93319409E-04
   71.6399994      -3.87256150E-04
   71.7600021      -3.80993297E-04
   71.8799973      -3.74538853E-04
   72.0000000      -3.67901201E-04
   72.1200027      -3.61088780E-04
   72.2399979      -3.54110351E-04
   72.3600006      -3.46974761E-04
   72.4800034      -3.39691003E-04
   72.5999985      -3.32268246E-04
   72.7200012      -3.24715860E-04