  -30.0000000       0.00000000    
  -29.8799992       0.00000000    
  -29.7600002       0.00000000    
  -29.6399994       0.00000000    
  -29.5200005       0.00000000    
  -29.3999996       0.00000000    
  -29.2800007       0.00000000    
  -29.1599998       0.00000000    
  -29.0400009       9.56339006E-38
  -28.9200001       2.43656844E-36
  -28.7999992       2.73466363E-35
  -28.6800003       1.88575547E-34
  -28.5599995       9.09918310E-34
  -28.4400005       3.25995991E-33
  -28.3199997       8.81967020E-33
  -28.2000008       1.74078738E-32
  -28.0799999       2.06589591E-32
  -27.9599991      -6.65313860E-33
  -27.8400002      -1.04331812E-31
  -27.7199993      -2.87043871E-31
  -27.6000004      -4.49239005E-31
  -27.4799995      -2.62036146E-31
  -27.3600006       7.67452144E-31
  -27.2399998       2.82828549E-30
  -27.1200008       4.88654318E-30
  -27.0000000       3.94452383E-30
  -26.8799992      -3.99752038E-30
  -26.7600002      -1.96848803E-29
  -26.6399994      -3.37705466E-29
  -26.5200005      -2.32825821E-29
  -26.3999996       3.76479040E-29
  -26.2800007       1.44381720E-28
  -26.1599998       2.15799439E-28
  -26.0400009       7.96203874E-29
  -25.9200001      -4.39957559E-28
  -25.7999992      -1.28489042E-27
  -25.6800003      -1.84596918E-27
  -25.5599995      -8.35614588E-28
  -25.4400005       3.21384841E-27
  -25.3199997       1.04882694E-26
  -25.2000008       1.77157097E-26
  -25.0799999       1.66049474E-26
  -24.9599991      -4.67962188E-27
  -24.8400002      -5.44996882E-26
  -24.7199993      -1.24823322E-25
  -24.6000004      -1.77005621E-25
  -24.4799995      -1.37434903E-25
  -24.3600006       8.14136255E-26
  -24.2399998       5.22711315E-25
  -24.1200008       1.09540141E-24
  -24.0000000       1.48994536E-24
  -23.8799992       1.17285621E-24
  -23.7600002      -4.49823822E-25
  -23.6399994      -3.64425655E-24
  -23.5200005      -7.79158311E-24
  -23.3999996      -1.09002134E-23
  -23.2800007      -9.61409398E-24
  -23.1599998      -2.03483589E-25
  -23.0400009       1.92077139E-23
  -22.9200001       4.55532999E-23
  -22.7999992       6.81881395E-23
  -22.6800003       6.88800400E-23
  -22.5599995       2.67393775E-23
  -22.4400005      -7.08944941E-23
  -22.3199997      -2.13580897E-22
  -22.2000008      -3.54952142E-22
  -22.0799999      -4.11311798E-22
  -21.9599991      -2.81080329E-22
  -21.8400002       1.11024978E-22
  -21.7199993       7.52710124E-22
  -21.6000004       1.48798988E-21
  -21.4799995       1.99995268E-21
  -21.3600006       1.86629334E-21
  -21.2399998       7.04146332E-22
  -21.1200008      -1.61462293E-21
  -21.0000000      -4.74149257E-21
  -20.8799992      -7.72453164E-21
  -20.7600002      -9.08882066E-21
  -20.6399994      -7.20111130E-21
  -20.5200005      -9.10321655E-22
  -20.3999996       9.66829460E-21
  -20.2800007       2.24868662E-20
  -20.1599998       3.33639196E-20
  -20.0400009       3.65823922E-20
  -19.9200001       2.64608583E-20
  -19.7999992      -2.46540162E-22
  -19.6800003      -4.16959290E-20
  -19.5599995      -8.90365838E-20
  -19.4400005      -1.26428534E-19
  -19.3199997      -1.33975432E-19
  -19.2000008      -9.37784160E-20
  -19.0799999       1.94433811E-21
  -18.9599991       1.43124024E-19
  -18.8400002       2.97875287E-19
  -18.7199993       4.15489823E-19
  -18.6000004       4.37896802E-19
  -18.4799995       3.18127124E-19
  -18.3600006       4.10026030E-20
  -18.2399998      -3.60985006E-19
  -18.1200008      -8.03537568E-19
  -18.0000000      -1.16217139E-18
  -17.8799992      -1.29873746E-18
  -17.7600002      -1.09709616E-18
  -17.6399994      -4.99468042E-19
  -17.5200005       4.64541116E-19
  -17.3999996       1.66143021E-18
  -17.2800007       2.85243742E-18
  -17.1599998       3.71022268E-18
  -17.0400009       3.85995768E-18
  -16.9200001       2.95430782E-18
  -16.7999992       7.88152215E-19
  -16.6800003      -2.55723093E-18
  -16.5599995      -6.57904180E-18
  -16.4400005      -1.02953984E-17
  -16.3199997      -1.23463671E-17
  -16.2000008      -1.13091066E-17
  -16.0799999      -6.20984173E-18
  -15.9600000       2.89088064E-18
  -15.8400002       1.44630065E-17
  -15.7200003       2.54827000E-17
  -15.6000004       3.20073832E-17
  -15.4799995       3.03454186E-17
  -15.3599997       1.85477683E-17
  -15.2399998      -2.29391308E-18
  -15.1199999      -2.75530735E-17
  -15.0000000      -4.98411888E-17
  -14.8800001      -6.11097478E-17
  -14.7600002      -5.55883702E-17
  -14.6400003      -3.25563466E-17
  -14.5200005       2.27907325E-18
  -14.3999996       3.77810146E-17
  -14.2799997       6.09901111E-17
  -14.1599998       6.24844161E-17
  -14.0400000       4.15744218E-17
  -13.9200001       8.85534400E-18
  -13.8000002      -1.60009388E-17
  -13.6800003      -1.18709922E-17
  -13.5600004       3.24450544E-17
  -13.4399996       1.07243986E-16
  -13.3199997       1.77041109E-16
  -13.1999998       1.87015240E-16
  -13.0799999       8.28134054E-17
  -12.9600000      -1.59861203E-16
  -12.8400002      -5.05891222E-16
  -12.7200003      -8.46211272E-16
  -12.6000004      -1.01234477E-15
  -12.4799995      -8.26908450E-16
  -12.3599997      -1.82984011E-16
  -12.2399998       8.71671918E-16
  -12.1199999       2.08269414E-15
  -12.0000000       3.00792813E-15
  -11.8800001       3.12946169E-15
  -11.7600002       2.04815616E-15
  -11.6400003      -2.92063869E-16
  -11.5200005      -3.43790853E-15
  -11.3999996      -6.41540806E-15
  -11.2799997      -7.93990897E-15
  -11.1599998      -6.84168247E-15
  -11.0400000      -2.60486221E-15
  -10.9200001       4.17000884E-15
  -10.8000002       1.16061894E-14
  -10.6800003       1.68720103E-14
  -10.5600004       1.70200056E-14
  -10.4399996       1.01743827E-14
  -10.3199997      -3.30822799E-15
  -10.1999998      -2.01974447E-14
  -10.0799999      -3.47116880E-14
  -9.96000004      -4.00006193E-14
  -9.84000015      -3.05730511E-14
  -9.72000027      -4.99952981E-15
  -9.60000038       3.21120456E-14
  -9.47999954       6.99011704E-14
  -9.35999966       9.34607074E-14
  -9.23999977       8.83720858E-14
  -9.11999989       4.65276180E-14
  -9.00000000      -2.86320887E-14
  -8.88000011      -1.19685362E-13
  -8.76000023      -1.97406653E-13
  -8.64000034      -2.28121016E-13
  -8.52000046      -1.84984339E-13
  -8.39999962      -6.00758457E-14
  -8.27999973       1.27008199E-13
  -8.15999985       3.28262591E-13
  -8.03999996       4.76555373E-13
  -7.92000008       5.04429289E-13
  -7.80000019       3.68065414E-13
  -7.67999983       6.90279743E-14
  -7.55999994      -3.34630137E-13
  -7.44000006      -7.34491840E-13
  -7.32000017      -9.97031342E-13
  -7.19999981      -1.00342532E-12
  -7.07999992      -6.93095483E-13
  -6.96000004      -9.64911338E-14
  -6.84000015       6.56543504E-13
  -6.71999979       1.36053332E-12
  -6.59999990       1.78808758E-12
  -6.48000002       1.76041603E-12
  -6.36000013       1.21326462E-12
  -6.23999977       2.34899611E-13
  -6.11999989      -9.41168042E-13
  -6.00000000      -1.99277704E-12
  -5.88000011      -2.60233545E-12
  -5.76000023      -2.55928351E-12
  -5.63999987      -1.83746963E-12
  -5.51999998      -6.17608178E-13
  -5.40000010       7.59110060E-13
  -5.28000021       1.89708535E-12
  -5.15999985       2.48011052E-12
  -5.03999996       2.38693787E-12
  -4.92000008       1.74373905E-12
  -4.80000019       8.86426295E-13
  -4.67999983       2.36079927E-13
  -4.55999994       1.23969628E-13
  -4.44000006       6.27029841E-13
  -4.32000017       1.48000644E-12
  -4.19999981       2.11224462E-12
  -4.07999992       1.81857231E-12
  -3.96000004       2.59916854E-14
  -3.83999991      -3.42337335E-12
  -3.72000003      -8.07197885E-12
  -3.59999990      -1.28160104E-11
  -3.48000002      -1.60873519E-11
  -3.35999990      -1.62280345E-11
  -3.24000001      -1.19719590E-11
  -3.11999989      -2.90409862E-12
  -3.00000000       1.02401516E-11
  -2.88000011       2.55378219E-11
  -2.75999999       4.01363422E-11
  -2.64000010       5.07564234E-11
  -2.51999998       5.43192817E-11
  -2.40000010       4.85440819E-11
  -2.27999997       3.23769067E-11
  -2.16000009       6.17282961E-12
  -2.03999996      -2.83629092E-11
  -1.91999996      -6.83908416E-11
  -1.79999995      -1.10184806E-10
  -1.67999995      -1.49297352E-10
  -1.55999994      -1.80591986E-10
  -1.44000006      -1.98180944E-10
  -1.32000005      -1.95387692E-10
  -1.20000005      -1.64886743E-10
  -1.08000004      -9.91404736E-11
 -0.959999979       8.84566032E-12
 -0.839999974       1.64557104E-10
 -0.720000029       3.71015524E-10
 -0.600000024       6.28105290E-10
 -0.479999989       9.32409483E-10
 -0.360000014       1.27765021E-09
 -0.239999995       1.65565361E-09
 -0.119999997       2.05759609E-09
  -1.11022302E-15   2.47520937E-09
  0.119999997       2.90165669E-09
  0.239999995       3.33192762E-09
  0.360000014       3.76280296E-09
  0.479999989       4.19260537E-09
  0.600000024       4.62103067E-09
  0.720000029       5.04927344E-09
  0.839999974       5.48049117E-09
  0.959999979       5.92040150E-09
   1.08000004       6.37763486E-09
   1.20000005       6.86343959E-09
   1.32000005       7.39050421E-09
   1.44000006       7.97097233E-09
   1.55999994       8.61409877E-09
   1.67999995       9.32425781E-09
   1.79999995       1.01000461E-08
   1.91999996       1.09349987E-08
   2.03999996       1.18199361E-08
   2.16000009       1.27464377E-08
   2.27999997       1.37104896E-08
   2.40000010       1.47151873E-08
   2.51999998       1.57716329E-08
   2.64000010       1.68976495E-08
   2.75999999       1.81146813E-08
   2.88000011       1.94438030E-08
   3.00000000       2.09020836E-08
   3.11999989       2.25004229E-08
   3.24000001       2.42434499E-08
   3.35999990       2.61313726E-08
   3.48000002       2.81629919E-08
   3.59999990       3.03387253E-08
   3.72000003       3.26624914E-08
   3.83999991       3.51418414E-08
   3.96000004       3.77864104E-08
   4.07999992       4.06053644E-08
   4.19999981       4.36050307E-08
   4.32000017       4.67878429E-08
   4.44000006       5.01531687E-08
   4.55999994       5.37001235E-08
   4.67999983       5.74314782E-08
   4.80000019       6.13575324E-08
   4.92000008       6.54987460E-08
   5.03999996       6.98862053E-08
   5.15999985       7.45598356E-08
   5.28000021       7.95647779E-08
   5.40000010       8.49470467E-08
   5.51999998       9.07496016E-08
   5.63999987       9.70097958E-08
   5.76000023       1.03758481E-07
   5.88000011       1.11020832E-07
   6.00000000       1.18817987E-07
   6.11999989       1.27168875E-07
   6.23999977       1.36091572E-07
   6.36000013       1.45603963E-07
   6.48000002       1.55723853E-07
   6.59999990       1.66469178E-07
   6.71999979       1.77858666E-07
   6.84000015       1.89913607E-07
   6.96000004       2.02660161E-07
   7.07999992       2.16131866E-07
   7.19999981       2.30371398E-07
   7.32000017       2.45430613E-07
   7.44000006       2.61368371E-07
   7.55999994       2.78246375E-07
   7.67999983       2.96124199E-07
   7.80000019       3.15054223E-07
   7.92000008       3.35078965E-07
   8.03999996       3.56231340E-07
   8.15999985       3.78538431E-07
   8.27999973       4.02028121E-07
   8.39999962       4.26736676E-07
   8.52000046       4.52715739E-07
   8.64000034       4.80036078E-07
   8.76000023       5.08786968E-07
   8.88000011       5.39071266E-07
   9.00000000       5.70997599E-07
   9.11999989       6.04671015E-07
   9.23999977       6.40186101E-07
   9.35999966       6.77623063E-07
   9.47999954       7.17049261E-07
   9.60000038       7.58524664E-07
   9.72000027       8.02109867E-07
   9.84000015       8.47874333E-07
   9.96000004       8.95901621E-07
   10.0799999       9.46290811E-07
   10.1999998       9.99153144E-07
   10.3199997       1.05460629E-06
   10.4399996       1.11276688E-06
   10.5600004       1.17374532E-06
   10.6800003       1.23764460E-06
   10.8000002       1.30456181E-06
   10.9200001       1.37459483E-06
   11.0400000       1.44784804E-06
   11.1599998       1.52443863E-06
   11.2799997       1.60449906E-06
   11.3999996       1.68817428E-06
   11.5200005       1.77561799E-06
   11.6400003       1.86698435E-06
   11.7600002       1.96242286E-06
   11.8800001       2.06207324E-06
   12.0000000       2.16606668E-06
   12.1199999       2.27452824E-06
   12.2399998       2.38758253E-06
   12.3599997       2.50536095E-06
   12.4799995       2.62800336E-06
   12.6000004       2.75566231E-06
   12.7200003       2.88849901E-06
   12.8400002       3.02668127E-06
   12.9600000       3.17037802E-06
   13.0799999       3.31975593E-06
   13.1999998       3.47497712E-06
   13.3199997       3.63620052E-06
   13.4399996       3.80358279E-06
   13.5600004       3.97728081E-06
   13.6800003       4.15745262E-06
   13.8000002       4.34425738E-06
   13.9200001       4.53785333E-06
   14.0400000       4.73839555E-06
   14.1599998       4.94603364E-06
   14.2799997       5.16091268E-06
   14.3999996       5.38317408E-06
   14.5200005       5.61296338E-06
   14.6400003       5.85043108E-06
   14.7600002       6.09574090E-06
   14.8800001       6.34906928E-06
   15.0000000       6.61060403E-06
   15.1199999       6.88053478E-06
   15.2399998       7.15904571E-06
   15.3599997       7.44630825E-06
   15.4799995       7.74247019E-06
   15.6000004       8.04765932E-06
   15.7200003       8.36198342E-06
   15.8400002       8.68553525E-06
   15.9600000       9.01839940E-06
   16.0799999       9.36066499E-06
   16.2000008       9.71241843E-06
   16.3199997       1.00737489E-05
   16.4400005       1.04447436E-05
   16.5599995       1.08254890E-05
   16.6800003       1.12160678E-05
   16.7999992       1.16165547E-05
   16.9200001       1.20270252E-05
   17.0400009       1.24475555E-05
   17.1599998       1.28782158E-05
   17.2800007       1.33190733E-05
   17.3999996       1.37701791E-05
   17.5200005       1.42315585E-05
   17.6399994       1.47032133E-05
   17.7600002       1.51851100E-05
   17.8799992       1.56771912E-05
   18.0000000       1.61793851E-05
   18.1200008       1.66916179E-05
   18.2399998       1.72138134E-05
   18.3600006       1.77459078E-05
   18.4799995       1.82878339E-05
   18.6000004       1.88395188E-05
   18.7199993       1.94008662E-05
   18.8400002       1.99717524E-05
   18.9599991       2.05520118E-05
   19.0799999       2.11414481E-05
   19.2000008       2.17398410E-05
   19.3199997       2.23469615E-05
   19.4400005       2.29625839E-05
   19.5599995       2.35864936E-05
   19.6800003       2.42184797E-05
   19.7999992       2.48583256E-05
   19.9200001       2.55057967E-05
   20.0400009       2.61606256E-05
   20.1599998       2.68224976E-05
   20.2800007       2.74910599E-05
   20.3999996       2.81659140E-05
   20.5200005       2.88466363E-05
   20.6399994       2.95327918E-05
   20.7600002       3.02239259E-05
   20.8799992       3.09195857E-05
   21.0000000       3.16193145E-05
   21.1200008       3.23226377E-05
   21.2399998       3.30290750E-05
   21.3600006       3.37381316E-05
   21.4799995       3.44492837E-05
   21.6000004       3.51620038E-05
   21.7199993       3.58757461E-05
   21.8400002       3.65899359E-05
   21.9599991       3.73039911E-05
   22.0799999       3.80172969E-05
   22.2000008       3.87292166E-05
   22.3199997       3.94391063E-05
   22.4400005       4.01462930E-05
   22.5599995       4.08501037E-05
   22.6800003       4.15498762E-05
   22.7999992       4.22449448E-05
   22.9200001       4.29346437E-05
   23.0400009       4.36182963E-05
   23.1599998       4.42952114E-05
   23.2800007       4.49646541E-05
   23.3999996       4.56258495E-05
   23.5200005       4.62779753E-05
   23.6399994       4.69201732E-05
   23.7600002       4.75515699E-05
   23.8799992       4.81712814E-05
   24.0000000       4.87784309E-05
   24.1200008       4.93721673E-05
   24.2399998       4.99516464E-05
   24.3600006       5.05160460E-05
   24.4799995       5.10645441E-05
   24.6000004       5.15963220E-05
   24.7199993       5.21105430E-05
   24.8400002       5.26063632E-05
   24.9599991       5.30829420E-05
   25.0799999       5.35394138E-05
   25.2000008       5.39749308E-05
   25.3199997       5.43886381E-05
   25.4400005       5.47796953E-05
   25.5599995       5.51472694E-05
   25.6800003       5.54905200E-05
   25.7999992       5.58086031E-05
   25.9200001       5.61006600E-05
   26.0400009       5.63658105E-05
   26.1599998       5.66031522E-05
   26.2800007       5.68117830E-05
   26.3999996       5.69907897E-05
   26.5200005       5.71392884E-05
   26.6399994       5.72564168E-05
   26.7600002       5.73413636E-05
   26.8799992       5.73933467E-05
   27.0000000       5.74116239E-05
   27.1200008       5.73954785E-05
   27.2399998       5.73441866E-05
   27.3600006       5.72570243E-05
   27.4799995       5.71332421E-05
   27.6000004       5.69720796E-05
   27.7199993       5.67727620E-05
   27.8400002       5.65345290E-05
   27.9599991       5.62566383E-05
   28.0799999       5.59384098E-05
   28.2000008       5.55792030E-05
   28.3199997       5.51784360E-05
   28.4400005       5.47355630E-05
   28.5599995       5.42500784E-05
   28.6800003       5.37214764E-05
   28.7999992       5.31492369E-05
   28.9200001       5.25328396E-05
   29.0400009       5.18717607E-05
   29.1599998       5.11654653E-05
   29.2800007       5.04134550E-05
   29.3999996       4.96152497E-05
   29.5200005       4.87704128E-05
   29.6399994       4.78785478E-05
   29.7600002       4.69392617E-05
   29.8799992       4.59521871E-05
   30.0000000       4.49169456E-05
   30.1200008       4.38331626E-05
   30.2399998       4.27004525E-05
   30.3600006       4.15184550E-05
   30.4799995       4.02868354E-05
   30.6000004       3.90053210E-05
   30.7199993       3.76736898E-05
   30.8400002       3.62917890E-05
   30.9599991       3.48595095E-05
   31.0799999       3.33767603E-05
   31.2000008       3.18434577E-05
   31.3199997       3.02594781E-05
   31.4400005       2.86246668E-05
   31.5599995       2.69388383E-05
   31.6800003       2.52017981E-05
   31.7999992       2.34133622E-05
   31.9200001       2.15733999E-05
   32.0400009       1.96818564E-05
   32.1599998       1.77387610E-05
   32.2799988       1.57442191E-05
   32.4000015       1.36983945E-05
   32.5200005       1.16014671E-05
   32.6399994       9.45360989E-06
   32.7599983       7.25495283E-06
   32.8800011       5.00558008E-06
   33.0000000       2.70553369E-06
   33.1199989       3.54830178E-07
   33.2400017      -2.04651133E-06
   33.3600006      -4.49844538E-06
   33.4799995      -7.00087730E-06
   33.5999985      -9.55365522E-06
   33.7200012      -1.21565754E-05
   33.8400002      -1.48093886E-05
   33.9599991      -1.75118275E-05
   34.0800018      -2.02636165E-05
   34.2000008      -2.30645019E-05
   34.3199997      -2.59142435E-05
   34.4399986      -2.88126357E-05
   34.5600014      -3.17594931E-05
   34.6800003      -3.47546338E-05
   34.7999992      -3.77978795E-05
   34.9199982      -4.08890264E-05
   35.0400009      -4.40278491E-05
   35.1599998      -4.72141037E-05
   35.2799988      -5.04475211E-05
   35.4000015      -5.37278393E-05
   35.5200005      -5.70548073E-05
   35.6399994      -6.04281668E-05
   35.7599983      -6.38477213E-05
   35.8800011      -6.73132454E-05
   36.0000000      -7.08245498E-05
   36.1199989      -7.43814453E-05
   36.2400017      -7.79837210E-05
   36.3600006      -8.16311585E-05
   36.4799995      -8.53235397E-05
   36.5999985      -8.90606461E-05
   36.7200012      -9.28422669E-05
   36.8400002      -9.66682201E-05
   36.9599991      -1.00538338E-04
   37.0800018      -1.04452483E-04
   37.2000008      -1.08410546E-04
   37.3199997      -1.12412403E-04
   37.4399986      -1.16457937E-04
   37.5600014      -1.20547047E-04
   37.6800003      -1.24679602E-04
   37.7999992      -1.28855492E-04
   37.9199982      -1.33074616E-04
   38.0400009      -1.37336843E-04
   38.1599998      -1.41642115E-04
   38.2799988      -1.45990358E-04
   38.4000015      -1.50381515E-04
   38.5200005      -1.54815585E-04
   38.6399994      -1.59292598E-04
   38.7599983      -1.63812554E-04
   38.8800011      -1.68375540E-04
   39.0000000      -1.72981556E-04
   39.1199989      -1.77630660E-04
   39.2400017      -1.82322881E-04
   39.3600006      -1.87058249E-04
   39.4799995      -1.91836793E-04
   39.5999985      -1.96658555E-04
   39.7200012      -2.01523580E-04
   39.8400002      -2.06431971E-04
   39.9599991      -2.11383827E-04
   40.0800018      -2.16379296E-04
   40.2000008      -2.21418552E-04
   40.3199997      -2.26501725E-04
   40.4399986      -2.31628946E-04
   40.5600014      -2.36800377E-04
   40.6800003      -2.42016176E-04
   40.7999992      -2.47276388E-04
   40.9199982      -2.52581172E-04
   41.0400009      -2.57930544E-04
   41.1599998      -2.63324619E-04
   41.2799988      -2.68763426E-04
   41.4000015      -2.74247053E-04
   41.5200005      -2.79775588E-04
   41.6399994      -2.85349059E-04
   41.7599983      -2.90967553E-04
   41.8800011      -2.96631071E-04
   42.0000000      -3.02339613E-04
   42.1199989      -3.08093178E-04
   42.2400017      -3.13891709E-04
   42.3600006      -3.19735147E-04
   42.4799995      -3.25623289E-04
   42.5999985      -3.31556017E-04
   42.7200012      -3.37533187E-04
   42.8400002      -3.43554508E-04
   42.9599991      -3.49619775E-04
   43.0800018      -3.55728669E-04
   43.2000008      -3.61880782E-04
   43.3199997      -3.68075707E-04
   43.4399986      -3.74312920E-04
   43.5600014      -3.80591897E-04
   43.6800003      -3.86911939E-04
   43.7999992      -3.93272465E-04
   43.9199982      -3.99672717E-04
   44.0400009      -4.06111969E-04
   44.1599998      -4.12589376E-04
   44.2799988      -4.19103948E-04
   44.4000015      -4.25654638E-04
   44.5200005      -4.32240166E-04
   44.6399994      -4.38859279E-04
   44.7599983      -4.45510523E-04
   44.8800011      -4.52192442E-04
   45.0000000      -4.58903465E-04
   45.1199989      -4.65641962E-04
   45.2400017      -4.72406246E-04
   45.3600006      -4.79194481E-04
   45.4799995      -4.86004836E-04
   45.5999985      -4.92835185E-04
   45.7200012      -4.99683432E-04
   45.8400002      -5.06547396E-04
   45.9599991      -5.13424457E-04
   46.0800018      -5.20312227E-04
   46.2000008      -5.27207856E-04
   46.3199997      -5.34108491E-04
   46.4399986      -5.41011104E-04
   46.5600014      -5.47912670E-04
   46.6800003      -5.54809812E-04
   46.7999992      -5.61699271E-04
   46.9199982      -5.68577554E-04
   47.0400009      -5.75440936E-04
   47.1599998      -5.82285866E-04
   47.2799988      -5.89108502E-04
   47.4000015      -5.95904945E-04
   47.5200005      -6.02671178E-04
   47.6399994      -6.09402952E-04
   47.7599983      -6.16095727E-04
   47.8800011      -6.22745021E-04
   48.0000000      -6.29346003E-04
   48.1199989      -6.35893783E-04
   48.2400017      -6.42383355E-04
   48.3600006      -6.48809713E-04
   48.4799995      -6.55167678E-04
   48.5999985      -6.61452010E-04
   48.7200012      -6.67657412E-04
   48.8400002      -6.73778239E-04
   48.9599991      -6.79809018E-04
   49.0800018      -6.85744046E-04
   49.2000008      -6.91577501E-04
   49.3199997      -6.97303331E-04
   49.4399986      -7.02915597E-04
   49.5600014      -7.08408130E-04
   49.6800003      -7.13774643E-04
   49.7999992      -7.19008909E-04
   49.9199982      -7.24104641E-04
   50.0400009      -7.29055377E-04
   50.1599998      -7.33854657E-04
   50.2799988      -7.38496077E-04
   50.4000015      -7.42973061E-04
   50.5200005      -7.47279148E-04
   50.6399994      -7.51407759E-04
   50.7599983      -7.55352376E-04
   50.8800011      -7.59106420E-04
   51.0000000      -7.62663374E-04
   51.1199989      -7.66016718E-04
   51.2400017      -7.69159931E-04
   51.3600006      -7.72086554E-04
   51.4799995      -7.74790067E-04
   51.5999985      -7.77264067E-04
   51.7200012      -7.79502152E-04
   51.8400002      -7.81498093E-04
   51.9599991      -7.83245778E-04
   52.0800018      -7.84739037E-04
   52.2000008      -7.85971875E-04
   52.3199997      -7.86938646E-04
   52.4399986      -7.87633529E-04
   52.5600014      -7.88051111E-04
   52.6800003      -7.88185804E-04
   52.7999992      -7.88032485E-04
   52.9199982      -7.87586032E-04
   53.0400009      -7.86841614E-04
   53.1599998      -7.85794575E-04
   53.2799988      -7.84440315E-04
   53.4000015      -7.82774761E-04
   53.5200005      -7.80793838E-04
   53.6399994      -7.78493762E-04
   53.7599983      -7.75870983E-04
   53.8800011      -7.72922242E-04
   54.0000000      -7.69644510E-04
   54.1199989      -7.66035228E-04
   54.2400017      -7.62091833E-04
   54.3600006      -7.57812406E-04
   54.4799995      -7.53195083E-04
   54.5999985      -7.48238526E-04
   54.7200012      -7.42941571E-04
   54.8400002      -7.37303460E-04
   54.9599991      -7.31323729E-04
   55.0800018      -7.25002261E-04
   55.2000008      -7.18339346E-04
   55.3199997      -7.11335684E-04
   55.4399986      -7.03992322E-04
   55.5600014      -6.96310657E-04
   55.6800003      -6.88292552E-04
   55.7999992      -6.79940218E-04
   55.9199982      -6.71256275E-04
   56.0400009      -6.62243459E-04
   56.1599998      -6.52905204E-04
   56.2799988      -6.43245236E-04
   56.4000015      -6.33267744E-04
   56.5200005      -6.22977328E-04
   56.6399994      -6.12379226E-04
   56.7599983      -6.01478911E-04
   56.8800011      -5.90282318E-04
   57.0000000      -5.78795676E-04
   57.1199989      -5.67025505E-04
   57.2400017      -5.54978848E-04
   57.3600006      -5.42662980E-04
   57.4799995      -5.30085643E-04
   57.5999985      -5.17254870E-04
   57.7200012      -5.04179334E-04
   57.8400002      -4.90867940E-04
   57.9599991      -4.77329973E-04
   58.0800018      -4.63575125E-04
   58.2000008      -4.49613290E-04
   58.3199997      -4.35454771E-04
   58.4399986      -4.21110191E-04
   58.5600014      -4.06590465E-04
   58.6800003      -3.91906884E-04
   58.7999992      -3.77071003E-04
   58.9199982      -3.62094725E-04
   59.0400009      -3.46990186E-04
   59.1599998      -3.31769610E-04
   59.2799988      -3.16445512E-04
   59.4000015      -3.01030581E-04
   59.5200005      -2.85537681E-04
   59.6399994      -2.69979908E-04
   59.7599983      -2.54370447E-04
   59.8800011      -2.38722758E-04
   60.0000000      -2.23050389E-04
   60.1199989      -2.07366975E-04
   60.2400017      -1.91686355E-04
   60.3600006      -1.76022280E-04
   60.4799995      -1.60388649E-04
   60.5999985      -1.44799284E-04
   60.7200012      -1.29268039E-04
   60.8400002      -1.13808725E-04
   60.9599991      -9.84351500E-05
   61.0800018      -8.31610378E-05
   61.2000008      -6.80001031E-05
   61.3199997      -5.29659374E-05
   61.4399986      -3.80720630E-05
   61.5600014      -2.33318297E-05
   61.6800003      -8.75839578E-06
   61.7999992       5.63524191E-06
   61.9199982       1.98363250E-05
   62.0400009       3.38323043E-05
   62.1599998       4.76108580E-05
   62.2799988       6.11599171E-05
   62.4000015       7.44676727E-05
   62.5200005       8.75226469E-05
   62.6399994       1.00313686E-04
   62.7599983       1.12830021E-04
   62.8800011       1.25061240E-04
   63.0000000       1.36997289E-04
   63.1199989       1.48628504E-04
   63.2400017       1.59945557E-04
   63.3600006       1.70939500E-04
   63.4799995       1.81601761E-04
   63.5999985       1.91924264E-04
   63.7200012       2.01899340E-04
   63.8400002       2.11519917E-04
   63.9599991       2.20779475E-04
   64.0800018       2.29671990E-04
   64.1999969       2.38191991E-04
   64.3199997       2.46334559E-04
   64.4400024       2.54095125E-04
   64.5599976       2.61469628E-04
   64.6800003       2.68454518E-04
   64.8000031       2.75046710E-04
   64.9199982       2.81243731E-04
   65.0400009       2.87043658E-04
   65.1600037       2.92445126E-04
   65.2799988       2.97447492E-04
   65.4000015       3.02050496E-04
   65.5199966       3.06254486E-04
   65.6399994       3.10060364E-04
   65.7600021       3.13469471E-04
   65.8799973       3.16483609E-04
   66.0000000       3.19105224E-04
   66.1200027       3.21337167E-04
   66.2399979       3.23182874E-04
   66.3600006       3.24646418E-04
   66.4800034       3.25732224E-04
   66.5999985       3.26445326E-04
   66.7200012       3.26791138E-04
   66.8399963       3.26775596E-04
   66.9599991       3.26404988E-04
   67.0800018       3.25686095E-04
   67.1999969       3.24626017E-04
   67.3199997       3.23232409E-04
   67.4400024       3.21513333E-04
   67.5599976       3.19477142E-04
   67.6800003       3.17132653E-04
   67.8000031       3.14488920E-04
   67.9199982       3.11555312E-04
   68.0400009       3.08341521E-04
   68.1600037       3.04857531E-04
   68.2799988       3.01113614E-04
   68.4000015       2.97120219E-04
   68.5199966       2.92888057E-04
   68.6399994       2.88428186E-04
   68.7600021       2.83751695E-04
   68.8799973       2.78869848E-04
   69.0000000       2.73794081E-04
   69.1200027       2.68535834E-04
   69.2399979       2.63106718E-04
   69.3600006       2.57518492E-04
   69.4800034       2.51782883E-04
   69.5999985       2.45911709E-04
   69.7200012       2.39916815E-04
   69.8399963       2.33810060E-04
   69.9599991       2.27603188E-04
   70.0800018       2.21307957E-04
   70.1999969       2.14935921E-04
   70.3199997       2.08498663E-04
   70.4400024       2.02007650E-04
   70.5599976       1.95474233E-04
   70.6800003       1.88909660E-04
   70.8000031       1.82325079E-04
   70.9199982       1.75731446E-04
   71.0400009       1.69139472E-04
   71.1600037       1.62559634E-04
   71.2799988       1.56002134E-04
   71.4000015       1.49476895E-04
   71.5199966       1.42993580E-04
   71.6399994       1.36561590E-04
   71.7600021       1.30190063E-04
   71.8799973       1.23887876E-04
   72.0000000       1.17663651E-04
   72.1200027       1.11525675E-04
   72.2399979       1.05481879E-04
   72.3600006       9.95398441E-05
   72.4800034       9.37067962E-05
   72.5999985       8.79895961E-05
   72.7200012       8.23947485E-05