  -30.0000000       0.00000000    
  -29.8799992       0.00000000    
  -29.7600002       0.00000000    
  -29.6399994       0.00000000    
  -29.5200005       0.00000000    
  -29.3999996       0.00000000    
  -29.2800007       0.00000000    
  -29.1599998       0.00000000    
  -29.0400009       6.05438344E-38
  -28.9200001      -5.25409572E-37
  -28.7999992      -8.71119231E-36
  -28.6800003      -4.77160736E-35
  -28.5599995      -1.55957588E-34
  -28.4400005      -3.96684252E-34
  -28.3199997      -1.11749922E-33
  -28.2000008      -3.91393150E-33
  -28.0799999      -1.28620300E-32
  -27.9599991      -3.20474760E-32
  -27.8400002      -5.06292235E-32
  -27.7199993      -1.01729302E-32
  -27.6000004       2.22400005E-31
  -27.4799995       7.94490113E-31
  -27.3600006       1.59802852E-30
  -27.2399998       1.77505308E-30
  -27.1200008      -6.15129188E-31
  -27.0000000      -7.75718841E-30
  -26.8799992      -1.88534609E-29
  -26.7600002      -2.47805223E-29
  -26.6399994      -5.07050109E-30
  -26.5200005       6.30499931E-29
  -26.3999996       1.73948560E-28
  -26.2800007       2.47370679E-28
  -26.1599998       1.08762921E-28
  -26.0400009      -4.24703423E-28
  -25.9200001      -1.28901615E-27
  -25.7999992      -1.82301595E-27
  -25.6800003      -6.62936431E-28
  -25.5599995       3.54643937E-27
  -25.4400005       1.02300661E-26
  -25.3199997       1.43493783E-26
  -25.2000008       5.61522016E-27
  -25.0799999      -2.67654404E-26
  -24.9599991      -8.11664532E-26
  -24.8400002      -1.25779976E-25
  -24.7199993      -8.98205901E-26
  -24.6000004       1.13421780E-25
  -24.4799995       5.12913318E-25
  -24.3600006       9.66303333E-25
  -24.2399998       1.07230238E-24
  -24.1200008       2.30361313E-25
  -24.0000000      -2.02919657E-24
  -23.8799992      -5.43476609E-24
  -23.7600002      -8.32035499E-24
  -23.6399994      -7.46562262E-24
  -23.5200005       8.96499595E-25
  -23.3999996       1.85261948E-23
  -23.2800007       4.15951683E-23
  -23.1599998       5.79163501E-23
  -23.0400009       4.79040518E-23
  -22.9200001      -8.01516206E-24
  -22.7999992      -1.15209235E-22
  -22.6800003      -2.48119701E-22
  -22.5599995      -3.40489381E-22
  -22.4400005      -2.94732949E-22
  -22.3199997      -1.92394403E-23
  -22.2000008       5.09112653E-22
  -22.0799999       1.17759904E-21
  -21.9599991       1.70261134E-21
  -21.8400002       1.66945929E-21
  -21.7199993       6.73724977E-22
  -21.6000004      -1.44902798E-21
  -21.4799995      -4.37364519E-21
  -21.3600006      -7.13400788E-21
  -21.2399998      -8.20452985E-21
  -21.1200008      -5.90884354E-21
  -21.0000000       8.54807052E-22
  -20.8799992       1.17342347E-20
  -20.7600002       2.42093874E-20
  -20.6399994       3.34611780E-20
  -20.5200005       3.32112531E-20
  -20.3999996       1.77104507E-20
  -20.2800007      -1.53513542E-20
  -20.1599998      -6.17822880E-20
  -20.0400009      -1.08962680E-19
  -19.9200001      -1.36596121E-19
  -19.7999992      -1.21358175E-19
  -19.6800003      -4.55656609E-20
  -19.5599995       9.18384061E-20
  -19.4400005       2.65767547E-19
  -19.3199997       4.22144233E-19
  -19.2000008       4.86566868E-19
  -19.0799999       3.86395477E-19
  -18.9599991       8.27800675E-20
  -18.8400002      -3.97173175E-19
  -18.7199993      -9.42417935E-19
  -18.6000004      -1.36814867E-18
  -18.4799995      -1.46104271E-18
  -18.3600006      -1.05344253E-18
  -18.2399998      -1.05503553E-19
  -18.1200008       1.23594928E-18
  -18.0000000       2.63262410E-18
  -17.8799992       3.62081935E-18
  -17.7600002       3.74068361E-18
  -17.6399994       2.69477639E-18
  -17.5200005       4.84939390E-19
  -17.3999996      -2.52285455E-18
  -17.2800007      -5.63648976E-18
  -17.1599998      -7.97791134E-18
  -17.0400009      -8.69414800E-18
  -16.9200001      -7.18893902E-18
  -16.7999992      -3.32229566E-18
  -16.6800003       2.46530656E-18
  -16.5599995       9.13548691E-18
  -16.4400005       1.51642638E-17
  -16.3199997       1.87988805E-17
  -16.2000008       1.84534515E-17
  -16.0799999       1.31940759E-17
  -15.9600000       3.20022737E-18
  -15.8400002      -9.96762151E-18
  -15.7200003      -2.34712184E-17
  -15.6000004      -3.37655986E-17
  -15.4799995      -3.75671321E-17
  -15.3599997      -3.29457270E-17
  -15.2399998      -2.01297711E-17
  -15.1199999      -1.63550337E-18
  -15.0000000       1.84441077E-17
  -14.8800001       3.57942095E-17
  -14.7600002       4.73389443E-17
  -14.6400003       5.21378458E-17
  -14.5200005       5.12385020E-17
  -14.3999996       4.64840730E-17
  -14.2799997       3.88293767E-17
  -14.1599998       2.70675632E-17
  -14.0400000       7.78991138E-18
  -13.9200001      -2.31167451E-17
  -13.8000002      -6.78593630E-17
  -13.6800003      -1.24009779E-16
  -13.5600004      -1.82772346E-16
  -13.4399996      -2.28990434E-16
  -13.3199997      -2.43033790E-16
  -13.1999998      -2.04285911E-16
  -13.0799999      -9.59481269E-17
  -12.9600000       8.88661506E-17
  -12.8400002       3.39811619E-16
  -12.7200003       6.21772952E-16
  -12.6000004       8.70047997E-16
  -12.4799995       9.93268209E-16
  -12.3599997       8.89572848E-16
  -12.2399998       4.78679653E-16
  -12.1199999      -2.54392237E-16
  -12.0000000      -1.21743463E-15
  -11.8800001      -2.19198024E-15
  -11.7600002      -2.85846218E-15
  -11.6400003      -2.87639133E-15
  -11.5200005      -2.00902133E-15
  -11.3999996      -2.56146363E-16
  -11.2799997       2.06041294E-15
  -11.1599998       4.31416623E-15
  -11.0400000       5.72345118E-15
  -10.9200001       5.61293413E-15
  -10.8000002       3.70984464E-15
  -10.6800003       3.57298905E-16
  -10.5600004      -3.47233322E-15
  -10.4399996      -6.42704079E-15
  -10.3199997      -7.25221393E-15
  -10.1999998      -5.34840913E-15
  -10.0799999      -1.18623894E-15
  -9.96000004       3.64362022E-15
  -9.84000015       6.86676439E-15
  -9.72000027       6.38759235E-15
  -9.60000038       1.31411571E-15
  -9.47999954      -7.26170070E-15
  -9.35999966      -1.61392574E-14
  -9.23999977      -2.07808963E-14
  -9.11999989      -1.69039096E-14
  -9.00000000      -2.45176821E-15
  -8.88000011       2.07707912E-14
  -8.76000023       4.65640777E-14
  -8.64000034       6.54202509E-14
  -8.52000046       6.72386815E-14
  -8.39999962       4.50453578E-14
  -8.27999973      -1.44414628E-15
  -8.15999985      -6.37924568E-14
  -8.03999996      -1.25459417E-13
  -7.92000008      -1.65472657E-13
  -7.80000019      -1.64537424E-13
  -7.67999983      -1.11980907E-13
  -7.55999994      -1.13104428E-14
  -7.44000006       1.17786653E-13
  -7.32000017       2.42366701E-13
  -7.19999981       3.24025664E-13
  -7.07999992       3.29879461E-13
  -6.96000004       2.43706720E-13
  -6.84000015       7.37014142E-14
  -6.71999979      -1.46145466E-13
  -6.59999990      -3.62375250E-13
  -6.48000002      -5.15135677E-13
  -6.36000013      -5.54749985E-13
  -6.23999977      -4.57046076E-13
  -6.11999989      -2.32617338E-13
  -6.00000000       7.33194972E-14
  -5.88000011       3.91077253E-13
  -5.76000023       6.44116596E-13
  -5.63999987       7.69085750E-13
  -5.51999998       7.32291398E-13
  -5.40000010       5.37684263E-13
  -5.28000021       2.24236631E-13
  -5.15999985      -1.45833812E-13
  -5.03999996      -5.03510319E-13
  -4.92000008      -7.88319171E-13
  -4.80000019      -9.57797752E-13
  -4.67999983      -9.89253167E-13
  -4.55999994      -8.75620756E-13
  -4.44000006      -6.19944254E-13
  -4.32000017      -2.33446454E-13
  -4.19999981       2.60114277E-13
  -4.07999992       8.15241537E-13
  -3.96000004       1.35627783E-12
  -3.83999991       1.77743909E-12
  -3.72000003       1.95738716E-12
  -3.59999990       1.78912722E-12
  -3.48000002       1.21872261E-12
  -3.35999990       2.79969895E-13
  -3.24000001      -8.90095452E-13
  -3.11999989      -2.06629505E-12
  -3.00000000      -2.98310573E-12
  -2.88000011      -3.40510541E-12
  -2.75999999      -3.19947649E-12
  -2.64000010      -2.38558956E-12
  -2.51999998      -1.14111672E-12
  -2.40000010       2.43066743E-13
  -2.27999997       1.44952485E-12
  -2.16000009       2.23678216E-12
  -2.03999996       2.52357250E-12
  -1.91999996       2.42356135E-12
  -1.79999995       2.21359498E-12
  -1.67999995       2.23998728E-12
  -1.55999994       2.78894507E-12
  -1.44000006       3.96135598E-12
  -1.32000005       5.59359286E-12
  -1.20000005       7.25359096E-12
  -1.08000004       8.31885082E-12
 -0.959999979       8.11748325E-12
 -0.839999974       6.09303103E-12
 -0.720000029       1.94523781E-12
 -0.600000024      -4.29498190E-12
 -0.479999989      -1.22794882E-11
 -0.360000014      -2.14432430E-11
 -0.239999995      -3.11637799E-11
 -0.119999997      -4.09359144E-11
  -1.11022302E-15  -5.05142352E-11
  0.119999997      -5.99859537E-11
  0.239999995      -6.97577759E-11
  0.360000014      -8.04658423E-11
  0.479999989      -9.28408461E-11
  0.600000024      -1.07572749E-10
  0.720000029      -1.25218474E-10
  0.839999974      -1.46179055E-10
  0.959999979      -1.70746348E-10
   1.08000004      -1.99189568E-10
   1.20000005      -2.31832345E-10
   1.32000005      -2.69066491E-10
   1.44000006      -3.11269205E-10
   1.55999994      -3.58627350E-10
   1.67999995      -4.10917911E-10
   1.79999995      -4.67329619E-10
   1.91999996      -5.26420629E-10
   2.03999996      -5.86279414E-10
   2.16000009      -6.44897413E-10
   2.27999997      -7.00683178E-10
   2.40000010      -7.52982232E-10
   2.51999998      -8.02436728E-10
   2.64000010      -8.51046955E-10
   2.75999999      -9.01876518E-10
   2.88000011      -9.58456869E-10
   3.00000000      -1.02405096E-09
   3.11999989      -1.10099574E-09
   3.24000001      -1.19032606E-09
   3.35999990      -1.29179378E-09
   3.48000002      -1.40425760E-09
   3.59999990      -1.52629320E-09
   3.72000003      -1.65678860E-09
   3.83999991      -1.79530935E-09
   3.96000004      -1.94211314E-09
   4.07999992      -2.09784279E-09
   4.19999981      -2.26306440E-09
   4.32000017      -2.43789056E-09
   4.44000006      -2.62189226E-09
   4.55999994      -2.81437851E-09
   4.67999983      -3.01495562E-09
   4.80000019      -3.22413318E-09
   4.92000008      -3.44368889E-09
   5.03999996      -3.67659370E-09
   5.15999985      -3.92645783E-09
   5.28000021      -4.19667145E-09
   5.40000010      -4.48957405E-09
   5.51999998      -4.80598983E-09
   5.63999987      -5.14537613E-09
   5.76000023      -5.50656454E-09
   5.88000011      -5.88885163E-09
   6.00000000      -6.29301944E-09
   6.11999989      -6.72185241E-09
   6.23999977      -7.17990556E-09
   6.36000013      -7.67255859E-09
   6.48000002      -8.20468582E-09
   6.59999990      -8.77946071E-09
   6.71999979      -9.39779810E-09
   6.84000015      -1.00586846E-08
   6.96000004      -1.07603659E-08
   7.07999992      -1.15019638E-08
   7.19999981      -1.22849055E-08
   7.32000017      -1.31136142E-08
   7.44000006      -1.39951108E-08
   7.55999994      -1.49376120E-08
   7.67999983      -1.59485669E-08
   7.80000019      -1.70328107E-08
   7.92000008      -1.81915176E-08
   8.03999996      -1.94223606E-08
   8.15999985      -2.07208828E-08
   8.27999973      -2.20826823E-08
   8.39999962      -2.35056987E-08
   8.52000046      -2.49919356E-08
   8.64000034      -2.65480473E-08
   8.76000023      -2.81846813E-08
   8.88000011      -2.99148226E-08
   9.00000000      -3.17516360E-08
   9.11999989      -3.37064741E-08
   9.23999977      -3.57875365E-08
   9.35999966      -3.79994312E-08
   9.47999954      -4.03436502E-08
   9.60000038      -4.28196074E-08
   9.72000027      -4.54259563E-08
   9.84000015      -4.81617661E-08
   9.96000004      -5.10275022E-08
   10.0799999      -5.40256053E-08
   10.1999998      -5.71608822E-08
   10.3199997      -6.04406480E-08
   10.4399996      -6.38747863E-08
   10.5600004      -6.74756038E-08
   10.6800003      -7.12573325E-08
   10.8000002      -7.52353344E-08
   10.9200001      -7.94248933E-08
   11.0400000      -8.38399572E-08
   11.1599998      -8.84920084E-08
   11.2799997      -9.33894526E-08
   11.3999996      -9.85376971E-08
   11.5200005      -1.03940053E-07
   11.6400003      -1.09599007E-07
   11.7600002      -1.15517672E-07
   11.8800001      -1.21700836E-07
   12.0000000      -1.28155278E-07
   12.1199999      -1.34889461E-07
   12.2399998      -1.41912565E-07
   12.3599997      -1.49233642E-07
   12.4799995      -1.56861262E-07
   12.6000004      -1.64803879E-07
   12.7200003      -1.73070873E-07
   12.8400002      -1.81674224E-07
   12.9600000      -1.90629578E-07
   13.0799999      -1.99956432E-07
   13.1999998      -2.09677111E-07
   13.3199997      -2.19814240E-07
   13.4399996      -2.30387727E-07
   13.5600004      -2.41412010E-07
   13.6800003      -2.52894438E-07
   13.8000002      -2.64835961E-07
   13.9200001      -2.77233426E-07
   14.0400000      -2.90083335E-07
   14.1599998      -3.03386344E-07
   14.2799997      -3.17150068E-07
   14.3999996      -3.31390481E-07
   14.5200005      -3.46130435E-07
   14.6400003      -3.61396417E-07
   14.7600002      -3.77213979E-07
   14.8800001      -3.93603585E-07
   15.0000000      -4.10578082E-07
   15.1199999      -4.28142357E-07
   15.2399998      -4.46295076E-07
   15.3599997      -4.65031945E-07
   15.4799995      -4.84349471E-07
   15.6000004      -5.04247566E-07
   15.7200003      -5.24730638E-07
   15.8400002      -5.45806699E-07
   15.9600000      -5.67485415E-07
   16.0799999      -5.89775595E-07
   16.2000008      -6.12682754E-07
   16.3199997      -6.36209677E-07
   16.4400005      -6.60356250E-07
   16.5599995      -6.85123041E-07
   16.6800003      -7.10513063E-07
   16.7999992      -7.36534730E-07
   16.9200001      -7.63201911E-07
   17.0400009      -7.90532738E-07
   17.1599998      -8.18546596E-07
   17.2800007      -8.47259400E-07
   17.3999996      -8.76679394E-07
   17.5200005      -9.06803734E-07
   17.6399994      -9.37616790E-07
   17.7600002      -9.69091047E-07
   17.8799992      -1.00119041E-06
   18.0000000      -1.03387470E-06
   18.1200008      -1.06710581E-06
   18.2399998      -1.10085159E-06
   18.3600006      -1.13508918E-06
   18.4799995      -1.16980505E-06
   18.6000004      -1.20499203E-06
   18.7199993      -1.24064434E-06
   18.8400002      -1.27675185E-06
   18.9599991      -1.31329443E-06
   19.0799999      -1.35024027E-06
   19.2000008      -1.38754513E-06
   19.3199997      -1.42515660E-06
   19.4400005      -1.46301909E-06
   19.5599995      -1.50108156E-06
   19.6800003      -1.53930102E-06
   19.7999992      -1.57764475E-06
   19.9200001      -1.61608818E-06
   20.0400009      -1.65461051E-06
   20.1599998      -1.69318776E-06
   20.2800007      -1.73178648E-06
   20.3999996      -1.77036020E-06
   20.5200005      -1.80884695E-06
   20.6399994      -1.84717248E-06
   20.7600002      -1.88525382E-06
   20.8799992      -1.92300172E-06
   21.0000000      -1.96032511E-06
   21.1200008      -1.99712849E-06
   21.2399998      -2.03331342E-06
   21.3600006      -2.06877371E-06
   21.4799995      -2.10339590E-06
   21.6000004      -2.13706062E-06
   21.7199993      -2.16964554E-06
   21.8400002      -2.20103175E-06
   21.9599991      -2.23110851E-06
   22.0799999      -2.25977669E-06
   22.2000008      -2.28694830E-06
   22.3199997      -2.31253944E-06
   22.4400005      -2.33646392E-06
   22.5599995      -2.35862399E-06
   22.6800003      -2.37890345E-06
   22.7999992      -2.39716496E-06
   22.9200001      -2.41325370E-06
   23.0400009      -2.42700207E-06
   23.1599998      -2.43823797E-06
   23.2800007      -2.44679040E-06
   23.3999996      -2.45249339E-06
   23.5200005      -2.45518413E-06
   23.6399994      -2.45469755E-06
   23.7600002      -2.45086198E-06
   23.8799992      -2.44349235E-06
   24.0000000      -2.43238810E-06
   24.1200008      -2.41733392E-06
   24.2399998      -2.39810356E-06
   24.3600006      -2.37446488E-06
   24.4799995      -2.34618528E-06
   24.6000004      -2.31303443E-06
   24.7199993      -2.27478563E-06
   24.8400002      -2.23121674E-06
   24.9599991      -2.18210926E-06
   25.0799999      -2.12724854E-06
   25.2000008      -2.06642108E-06
   25.3199997      -1.99941564E-06
   25.4400005      -1.92602079E-06
   25.5599995      -1.84602357E-06
   25.6800003      -1.75920422E-06
   25.7999992      -1.66533221E-06
   25.9200001      -1.56416172E-06
   26.0400009      -1.45542879E-06
   26.1599998      -1.33884964E-06
   26.2800007      -1.21412279E-06
   26.3999996      -1.08093332E-06
   26.5200005      -9.38957214E-07
   26.6399994      -7.87868714E-07
   26.7600002      -6.27345287E-07
   26.8799992      -4.57071337E-07
   27.0000000      -2.76740792E-07
   27.1200008      -8.60561471E-08
   27.2399998       1.15272904E-07
   27.3600006       3.27535304E-07
   27.4799995       5.51022936E-07
   27.6000004       7.86036480E-07
   27.7199993       1.03288949E-06
   27.8400002       1.29190994E-06
   27.9599991       1.56343754E-06
   28.0799999       1.84781743E-06
   28.2000008       2.14539136E-06
   28.3199997       2.45648971E-06
   28.4400005       2.78142761E-06
   28.5599995       3.12050315E-06
   28.6800003       3.47400442E-06
   28.7999992       3.84221858E-06
   28.9200001       4.22544417E-06
   29.0400009       4.62400021E-06
   29.1599998       5.03823048E-06
   29.2800007       5.46850515E-06
   29.3999996       5.91521029E-06
   29.5200005       6.37874246E-06
   29.6399994       6.85949499E-06
   29.7600002       7.35785261E-06
   29.8799992       7.87418867E-06
   30.0000000       8.40886696E-06
   30.1200008       8.96224265E-06
   30.2399998       9.53467043E-06
   30.3600006       1.01264977E-05
   30.4799995       1.07380674E-05
   30.6000004       1.13697115E-05
   30.7199993       1.20217410E-05
   30.8400002       1.26944469E-05
   30.9599991       1.33880967E-05
   31.0799999       1.41029413E-05
   31.2000008       1.48392255E-05
   31.3199997       1.55971993E-05
   31.4400005       1.63771310E-05
   31.5599995       1.71793145E-05
   31.6800003       1.80040570E-05
   31.7999992       1.88516806E-05
   31.9200001       1.97224981E-05
   32.0400009       2.06167970E-05
   32.1599998       2.15348282E-05
   32.2799988       2.24767882E-05
   32.4000015       2.34428335E-05
   32.5200005       2.44330859E-05
   32.6399994       2.54476490E-05
   32.7599983       2.64866321E-05
   32.8800011       2.75501716E-05
   33.0000000       2.86384220E-05
   33.1199989       2.97515726E-05
   33.2400017       3.08898234E-05
   33.3600006       3.20533763E-05
   33.4799995       3.32424061E-05
   33.5999985       3.44570508E-05
   33.7200012       3.56973869E-05
   33.8400002       3.69634363E-05
   33.9599991       3.82551880E-05
   34.0800018       3.95725692E-05
   34.2000008       4.09155182E-05
   34.3199997       4.22839548E-05
   34.4399986       4.36778064E-05
   34.5600014       4.50970074E-05
   34.6800003       4.65414851E-05
   34.7999992       4.80111521E-05
   34.9199982       4.95058885E-05
   35.0400009       5.10255195E-05
   35.1599998       5.25698197E-05
   35.2799988       5.41385234E-05
   35.4000015       5.57313106E-05
   35.5200005       5.73478355E-05
   35.6399994       5.89877345E-05
   35.7599983       6.06506183E-05
   35.8800011       6.23360902E-05
   36.0000000       6.40437211E-05
   36.1199989       6.57730634E-05
   36.2400017       6.75236151E-05
   36.3600006       6.92948379E-05
   36.4799995       7.10861714E-05
   36.5999985       7.28969535E-05
   36.7200012       7.47265512E-05
   36.8400002       7.65742298E-05
   36.9599991       7.84392614E-05
   37.0800018       8.03208750E-05
   37.2000008       8.22182992E-05
   37.3199997       8.41306974E-05
   37.4399986       8.60572327E-05
   37.5600014       8.79970248E-05
   37.6800003       8.99491570E-05
   37.7999992       9.19126542E-05
   37.9199982       9.38864687E-05
   38.0400009       9.58695091E-05
   38.1599998       9.78606258E-05
   38.2799988       9.98586183E-05
   38.4000015       1.01862272E-04
   38.5200005       1.03870327E-04
   38.6399994       1.05881547E-04
   38.7599983       1.07894622E-04
   38.8800011       1.09908251E-04
   39.0000000       1.11921065E-04
   39.1199989       1.13931659E-04
   39.2400017       1.15938550E-04
   39.3600006       1.17940202E-04
   39.4799995       1.19935008E-04
   39.5999985       1.21921323E-04
   39.7200012       1.23897422E-04
   39.8400002       1.25861538E-04
   39.9599991       1.27811873E-04
   40.0800018       1.29746608E-04
   40.2000008       1.31663910E-04
   40.3199997       1.33561916E-04
   40.4399986       1.35438750E-04
   40.5600014       1.37292576E-04
   40.6800003       1.39121403E-04
   40.7999992       1.40923308E-04
   40.9199982       1.42696270E-04
   41.0400009       1.44438236E-04
   41.1599998       1.46147097E-04
   41.2799988       1.47820741E-04
   41.4000015       1.49457046E-04
   41.5200005       1.51053828E-04
   41.6399994       1.52608947E-04
   41.7599983       1.54120178E-04
   41.8800011       1.55585294E-04
   42.0000000       1.57002039E-04
   42.1199989       1.58368144E-04
   42.2400017       1.59681309E-04
   42.3600006       1.60939235E-04
   42.4799995       1.62139608E-04
   42.5999985       1.63280143E-04
   42.7200012       1.64358542E-04
   42.8400002       1.65372505E-04
   42.9599991       1.66319689E-04
   43.0800018       1.67197766E-04
   43.2000008       1.68004379E-04
   43.3199997       1.68737170E-04
   43.4399986       1.69393767E-04
   43.5600014       1.69971841E-04
   43.6800003       1.70469066E-04
   43.7999992       1.70883111E-04
   43.9199982       1.71211679E-04
   44.0400009       1.71452484E-04
   44.1599998       1.71603300E-04
   44.2799988       1.71661915E-04
   44.4000015       1.71626118E-04
   44.5200005       1.71493768E-04
   44.6399994       1.71262727E-04
   44.7599983       1.70930944E-04
   44.8800011       1.70496336E-04
   45.0000000       1.69956911E-04
   45.1199989       1.69310646E-04
   45.2400017       1.68555605E-04
   45.3600006       1.67689897E-04
   45.4799995       1.66711703E-04
   45.5999985       1.65619291E-04
   45.7200012       1.64411002E-04
   45.8400002       1.63085278E-04
   45.9599991       1.61640564E-04
   46.0800018       1.60075448E-04
   46.2000008       1.58388517E-04
   46.3199997       1.56578419E-04
   46.4399986       1.54643873E-04
   46.5600014       1.52583685E-04
   46.6800003       1.50396736E-04
   46.7999992       1.48081963E-04
   46.9199982       1.45638449E-04
   47.0400009       1.43065408E-04
   47.1599998       1.40362099E-04
   47.2799988       1.37527953E-04
   47.4000015       1.34562448E-04
   47.5200005       1.31465204E-04
   47.6399994       1.28235901E-04
   47.7599983       1.24874394E-04
   47.8800011       1.21380559E-04
   48.0000000       1.17754433E-04
   48.1199989       1.13996146E-04
   48.2400017       1.10105953E-04
   48.3600006       1.06084219E-04
   48.4799995       1.01931459E-04
   48.5999985       9.76483352E-05
   48.7200012       9.32356270E-05
   48.8400002       8.86943308E-05
   48.9599991       8.40255307E-05
   49.0800018       7.92304854E-05
   49.2000008       7.43105484E-05
   49.3199997       6.92672111E-05
   49.4399986       6.41020670E-05
   49.5600014       5.88168587E-05
   49.6800003       5.34134306E-05
   49.7999992       4.78937945E-05
   49.9199982       4.22601115E-05
   50.0400009       3.65147280E-05
   50.1599998       3.06601432E-05
   50.2799988       2.46990112E-05
   50.4000015       1.86341513E-05
   50.5200005       1.24685012E-05
   50.6399994       6.20514584E-06
   50.7599983      -1.52703109E-07
   50.8800011      -6.60170508E-06
   51.0000000      -1.31383804E-05
   51.1199989      -1.97591198E-05
   51.2400017      -2.64601749E-05
   51.3600006      -3.32376512E-05
   51.4799995      -4.00875033E-05
   51.5999985      -4.70055675E-05
   51.7200012      -5.39875291E-05
   51.8400002      -6.10289499E-05
   51.9599991      -6.81252495E-05
   52.0800018      -7.52717024E-05
   52.2000008      -8.24634626E-05
   52.3199997      -8.96955389E-05
   52.4399986      -9.69628527E-05
   52.5600014      -1.04260216E-04
   52.6800003      -1.11582347E-04
   52.7999992      -1.18923905E-04
   52.9199982      -1.26279410E-04
   53.0400009      -1.33643349E-04
   53.1599998      -1.41010081E-04
   53.2799988      -1.48373903E-04
   53.4000015      -1.55729009E-04
   53.5200005      -1.63069533E-04
   53.6399994      -1.70389554E-04
   53.7599983      -1.77683032E-04
   53.8800011      -1.84943914E-04
   54.0000000      -1.92166073E-04
   54.1199989      -1.99343354E-04
   54.2400017      -2.06469558E-04
   54.3600006      -2.13538457E-04
   54.4799995      -2.20543763E-04
   54.5999985      -2.27479177E-04
   54.7200012      -2.34338440E-04
   54.8400002      -2.41115253E-04
   54.9599991      -2.47803400E-04
   55.0800018      -2.54396669E-04
   55.2000008      -2.60888948E-04
   55.3199997      -2.67274154E-04
   55.4399986      -2.73546262E-04
   55.5600014      -2.79699278E-04
   55.6800003      -2.85727234E-04
   55.7999992      -2.91624223E-04
   55.9199982      -2.97384307E-04
   56.0400009      -3.03001725E-04
   56.1599998      -3.08470684E-04
   56.2799988      -3.13785684E-04
   56.4000015      -3.18941253E-04
   56.5200005      -3.23932123E-04
   56.6399994      -3.28753144E-04
   56.7599983      -3.33399279E-04
   56.8800011      -3.37865640E-04
   57.0000000      -3.42147425E-04
   57.1199989      -3.46239976E-04
   57.2400017      -3.50138784E-04
   57.3600006      -3.53839598E-04
   57.4799995      -3.57338402E-04
   57.5999985      -3.60631413E-04
   57.7200012      -3.63715080E-04
   57.8400002      -3.66586086E-04
   57.9599991      -3.69241257E-04
   58.0800018      -3.71677626E-04
   58.2000008      -3.73892428E-04
   58.3199997      -3.75882955E-04
   58.4399986      -3.77646880E-04
   58.5600014      -3.79182020E-04
   58.6800003      -3.80486570E-04
   58.7999992      -3.81558988E-04
   58.9199982      -3.82397993E-04
   59.0400009      -3.83002654E-04
   59.1599998      -3.83372215E-04
   59.2799988      -3.83506238E-04
   59.4000015      -3.83404491E-04
   59.5200005      -3.83067090E-04
   59.6399994      -3.82494356E-04
   59.7599983      -3.81686928E-04
   59.8800011      -3.80645710E-04
   60.0000000      -3.79371952E-04
   60.1199989      -3.77867167E-04
   60.2400017      -3.76133044E-04
   60.3600006      -3.74171621E-04
   60.4799995      -3.71985108E-04
   60.5999985      -3.69576010E-04
   60.7200012      -3.66947119E-04
   60.8400002      -3.64101521E-04
   60.9599991      -3.61042650E-04
   61.0800018      -3.57774145E-04
   61.2000008      -3.54299962E-04
   61.3199997      -3.50624381E-04
   61.4399986      -3.46751825E-04
   61.5600014      -3.42686952E-04
   61.6800003      -3.38434649E-04
   61.7999992      -3.34000011E-04
   61.9199982      -3.29388422E-04
   62.0400009      -3.24605469E-04
   62.1599998      -3.19656916E-04
   62.2799988      -3.14548874E-04
   62.4000015      -3.09287541E-04
   62.5200005      -3.03879351E-04
   62.6399994      -2.98330793E-04
   62.7599983      -2.92648590E-04
   62.8800011      -2.86839524E-04
   63.0000000      -2.80910463E-04
   63.1199989      -2.74868507E-04
   63.2400017      -2.68720847E-04
   63.3600006      -2.62474903E-04
   63.4799995      -2.56138097E-04
   63.5999985      -2.49718112E-04
   63.7200012      -2.43222574E-04
   63.8400002      -2.36659238E-04
   63.9599991      -2.30035934E-04
   64.0800018      -2.23360374E-04
   64.1999969      -2.16640430E-04
   64.3199997      -2.09883918E-04
   64.4400024      -2.03098578E-04
   64.5599976      -1.96292225E-04
   64.6800003      -1.89472645E-04
   64.8000031      -1.82647520E-04
   64.9199982      -1.75824549E-04
   65.0400009      -1.69011313E-04
   65.1600037      -1.62215336E-04
   65.2799988      -1.55444082E-04
   65.4000015      -1.48704916E-04
   65.5199966      -1.42005170E-04
   65.6399994      -1.35352035E-04
   65.7600021      -1.28752639E-04
   65.8799973      -1.22213940E-04
   66.0000000      -1.15742710E-04
   66.1200027      -1.09345543E-04
   66.2399979      -1.03028811E-04
   66.3600006      -9.67986707E-05
   66.4800034      -9.06611094E-05
   66.5999985      -8.46218973E-05
   66.7200012      -7.86866658E-05
   66.8399963      -7.28608793E-05
   66.9599991      -6.71497910E-05
   67.0800018      -6.15584431E-05
   67.1999969      -5.60916378E-05
   67.3199997      -5.07538971E-05
   67.4400024      -4.55494701E-05
   67.5599976      -4.04823259E-05
   67.6800003      -3.55561824E-05
   67.8000031      -3.07745140E-05
   67.9199982      -2.61405621E-05
   68.0400009      -2.16573171E-05
   68.1600037      -1.73275057E-05
   68.2799988      -1.31535608E-05
   68.4000015      -9.13763142E-06
   68.5199966      -5.28155033E-06
   68.6399994      -1.58686146E-06
   68.7600021       1.94517474E-06
   68.8799973       5.31355545E-06
   69.0000000       8.51752702E-06
   69.1200027       1.15565772E-05
   69.2399979       1.44304349E-05
   69.3600006       1.71390893E-05
   69.4800034       1.96827878E-05
   69.5999985       2.20620350E-05
   69.7200012       2.42775986E-05
   69.8399963       2.63304992E-05
   69.9599991       2.82220026E-05
   70.0800018       2.99536077E-05
   70.1999969       3.15270445E-05
   70.3199997       3.29442664E-05
   70.4400024       3.42074345E-05
   70.5599976       3.53189389E-05
   70.6800003       3.62813662E-05
   70.8000031       3.70975140E-05
   70.9199982       3.77703655E-05
   71.0400009       3.83030601E-05
   71.1600037       3.86989086E-05
   71.2799988       3.89613524E-05
   71.4000015       3.90939749E-05
   71.5199966       3.91004796E-05
   71.6399994       3.89847191E-05
   71.7600021       3.87506770E-05
   71.8799973       3.84024825E-05
   72.0000000       3.79443809E-05
   72.1200027       3.73807488E-05
   72.2399979       3.67160355E-05
   72.3600006       3.59547630E-05
   72.4800034       3.51014933E-05
   72.5999985       3.41608211E-05
   72.7200012       3.31373776E-05