  -30.0000000       0.00000000    
  -29.8799992       0.00000000    
  -29.7600002       0.00000000    
  -29.6399994       0.00000000    
  -29.5200005       0.00000000    
  -29.3999996       0.00000000    
  -29.2800007       0.00000000    
  -29.1599998      -1.01866378E-24
  -29.0400009       2.09538969E-24
  -28.9200001       1.01882232E-22
  -28.7999992       7.77834422E-22
  -28.6800003       3.39471531E-21
  -28.5599995       9.99342020E-21
  -28.4400005       1.98756622E-20
  -28.3199997       2.00072873E-20
  -28.2000008      -2.90819837E-20
  -28.0799999      -1.97223433E-19
  -27.9599991      -5.46914037E-19
  -27.8400002      -1.02075845E-18
  -27.7199993      -1.26241027E-18
  -27.6000004      -4.78834539E-19
  -27.4799995       2.42737081E-18
  -27.3600006       8.19309245E-18
  -27.2399998       1.59337386E-17
  -27.1200008       2.17251196E-17
  -27.0000000       1.81212492E-17
  -26.8799992      -3.93673824E-18
  -26.7600002      -4.98922755E-17
  -26.6399994      -1.13870080E-16
  -26.5200005      -1.71985117E-16
  -26.3999996      -1.82304903E-16
  -26.2800007      -9.67926916E-17
  -26.1599998       1.13731392E-16
  -26.0400009       4.28469737E-16
  -25.9200001       7.54609265E-16
  -25.7999992       9.33217808E-16
  -25.6800003       7.85782195E-16
  -25.5599995       1.96933347E-16
  -25.4400005      -7.94226002E-16
  -25.3199997      -1.93977872E-15
  -25.2000008      -2.81124962E-15
  -25.0799999      -2.93047968E-15
  -24.9599991      -1.97610118E-15
  -24.8400002       1.19222956E-17
  -24.7199993       2.53476388E-15
  -24.6000004       4.73066292E-15
  -24.4799995       5.67989547E-15
  -24.3600006       4.83083939E-15
  -24.2399998       2.36634027E-15
  -24.1200008      -7.00897106E-16
  -24.0000000      -2.84639175E-15
  -23.8799992      -2.74139270E-15
  -23.7600002      -1.12086335E-16
  -23.6399994       3.65672212E-15
  -23.5200005       5.60500251E-15
  -23.3999996       2.21313743E-15
  -23.2800007      -8.78817520E-15
  -23.1599998      -2.64164640E-14
  -23.0400009      -4.51951946E-14
  -22.9200001      -5.56365223E-14
  -22.7999992      -4.69615225E-14
  -22.6800003      -1.16906835E-14
  -22.5599995       4.93027995E-14
  -22.4400005       1.23442990E-13
  -22.3199997       1.86984027E-13
  -22.2000008       2.10609565E-13
  -22.0799999       1.69408609E-13
  -21.9599991       5.43810805E-14
  -21.8400002      -1.18904466E-13
  -21.7199993      -3.08905787E-13
  -21.6000004      -4.56465323E-13
  -21.4799995      -5.01998454E-13
  -21.3600006      -4.06744733E-13
  -21.2399998      -1.70690881E-13
  -21.1200008       1.60267782E-13
  -21.0000000       5.02360523E-13
  -20.8799992       7.56353422E-13
  -20.7600002       8.37938334E-13
  -20.6399994       7.06047742E-13
  -20.5200005       3.79020573E-13
  -20.3999996      -6.75965631E-14
  -20.2800007      -5.21447089E-13
  -20.1599998      -8.65382635E-13
  -20.0400009      -1.01061585E-12
  -19.9200001      -9.20586849E-13
  -19.7999992      -6.18915509E-13
  -19.6800003      -1.80547987E-13
  -19.5599995       2.89546842E-13
  -19.4400005       6.82936238E-13
  -19.3199997       9.12470078E-13
  -19.2000008       9.30356920E-13
  -19.0799999       7.37370017E-13
  -18.9599991       3.82739250E-13
  -18.8400002      -4.51517147E-14
  -18.7199993      -4.36934885E-13
  -18.6000004      -6.87875538E-13
  -18.4799995      -7.26943733E-13
  -18.3600006      -5.42042214E-13
  -18.2399998      -1.92025961E-13
  -18.1200008       2.02519709E-13
  -18.0000000       4.92085105E-13
  -17.8799992       5.48151422E-13
  -17.7600002       3.15090754E-13
  -17.6399994      -1.55467775E-13
  -17.5200005      -7.04511373E-13
  -17.3999996      -1.10627122E-12
  -17.2800007      -1.14159528E-12
  -17.1599998      -6.82455340E-13
  -17.0400009       2.41318765E-13
  -16.9200001       1.41964793E-12
  -16.7999992       2.49884835E-12
  -16.6800003       3.07399592E-12
  -16.5599995       2.81505440E-12
  -16.4400005       1.59123225E-12
  -16.3199997      -4.46218583E-13
  -16.2000008      -2.85558209E-12
  -16.0799999      -4.98601941E-12
  -15.9600000      -6.13947435E-12
  -15.8400002      -5.77771034E-12
  -15.7200003      -3.71836676E-12
  -15.6000004      -2.56306586E-13
  -15.4799995       3.84230278E-12
  -15.3599997       7.49475915E-12
  -15.2399998       9.58198885E-12
  -15.1199999       9.28434586E-12
  -15.0000000       6.37237138E-12
  -14.8800001       1.35111822E-12
  -14.7600002      -4.60797546E-12
  -14.6400003      -9.94934083E-12
  -14.5200005      -1.31583217E-11
  -14.3999996      -1.32025293E-11
  -14.2799997      -9.84873207E-12
  -14.1599998      -3.74997169E-12
  -14.0400000       3.72759029E-12
  -13.9200001       1.08810686E-11
  -13.8000002       1.61263381E-11
  -13.6800003       1.83872830E-11
  -13.5600004       1.73053741E-11
  -13.4399996       1.32267834E-11
  -13.3199997       7.00398897E-12
  -13.1999998      -2.93927399E-13
  -13.0799999      -7.65328512E-12
  -12.9600000      -1.42891133E-11
  -12.8400002      -1.96918367E-11
  -12.7200003      -2.35716082E-11
  -12.6000004      -2.57544715E-11
  -12.4799995      -2.60853301E-11
  -12.3599997      -2.43722265E-11
  -12.2399998      -2.03819375E-11
  -12.1199999      -1.38823892E-11
  -12.0000000      -4.72634518E-12
  -11.8800001       7.02512180E-12
  -11.7600002       2.09454901E-11
  -11.6400003       3.60789038E-11
  -11.5200005       5.08277691E-11
  -11.3999996       6.29730712E-11
  -11.2799997       6.99000163E-11
  -11.1599998       6.90502655E-11
  -11.0400000       5.85366408E-11
  -10.9200001       3.77686042E-11
  -10.8000002       7.88855266E-12
  -10.6800003      -2.81570826E-11
  -10.5600004      -6.59880969E-11
  -10.4399996      -1.00531486E-10
  -10.3199997      -1.26925234E-10
  -10.1999998      -1.41307452E-10
  -10.0799999      -1.41247306E-10
  -9.96000004      -1.25705182E-10
  -9.84000015      -9.45900580E-11
  -9.72000027      -4.81397630E-11
  -9.60000038       1.35803521E-11
  -9.47999954       9.08156397E-11
  -9.35999966       1.83806650E-10
  -9.23999977       2.92127600E-10
  -9.11999989       4.13949042E-10
  -9.00000000       5.45559209E-10
  -8.88000011       6.81411372E-10
  -8.76000023       8.14791790E-10
  -8.64000034       9.38984668E-10
  -8.52000046       1.04862519E-09
  -8.39999962       1.14084742E-09
  -8.27999973       1.21587718E-09
  -8.15999985       1.27688760E-09
  -8.03999996       1.32915789E-09
  -7.92000008       1.37879475E-09
  -7.80000019       1.43140177E-09
  -7.67999983       1.49108581E-09
  -7.55999994       1.56005331E-09
  -7.44000006       1.63883274E-09
  -7.32000017       1.72692505E-09
  -7.19999981       1.82353155E-09
  -7.07999992       1.92800154E-09
  -6.96000004       2.03978323E-09
  -6.84000015       2.15791518E-09
  -6.71999979       2.28036034E-09
  -6.59999990       2.40362263E-09
  -6.48000002       2.52304888E-09
  -6.36000013       2.63395505E-09
  -6.23999977       2.73334400E-09
  -6.11999989       2.82162849E-09
  -6.00000000       2.90361468E-09
  -5.88000011       2.98814129E-09
  -5.76000023       3.08619397E-09
  -5.63999987       3.20788951E-09
  -5.51999998       3.35923356E-09
  -5.40000010       3.53976670E-09
  -5.28000021       3.74203202E-09
  -5.15999985       3.95322042E-09
  -5.03999996       4.15859969E-09
  -4.92000008       4.34567360E-09
  -4.80000019       4.50771553E-09
  -4.67999983       4.64550576E-09
  -4.55999994       4.76673856E-09
  -4.44000006       4.88338880E-09
  -4.32000017       5.00809083E-09
  -4.19999981       5.15090726E-09
  -4.07999992       5.31770050E-09
  -3.96000004       5.51066481E-09
  -3.83999991       5.73069325E-09
  -3.72000003       5.98049121E-09
  -3.59999990       6.26697449E-09
  -3.48000002       6.60169830E-09
  -3.35999990       6.99876690E-09
  -3.24000001       7.47066498E-09
  -3.11999989       8.02331623E-09
  -3.00000000       8.65215011E-09
  -2.88000011       9.34076816E-09
  -2.75999999       1.00630526E-08
  -2.64000010       1.07884013E-08
  -2.51999998       1.14886811E-08
  -2.40000010       1.21448158E-08
  -2.27999997       1.27508901E-08
  -2.16000009       1.33144269E-08
  -2.03999996       1.38526648E-08
  -1.91999996       1.43859982E-08
  -1.79999995       1.49306949E-08
  -1.67999995       1.54932636E-08
  -1.55999994       1.60682934E-08
  -1.44000006       1.66404845E-08
  -1.32000005       1.71901142E-08
  -1.20000005       1.77000423E-08
  -1.08000004       1.81618844E-08
 -0.959999979       1.85791169E-08
 -0.839999974       1.89659861E-08
 -0.720000029       1.93423766E-08
 -0.600000024       1.97261727E-08
 -0.479999989       2.01254533E-08
 -0.360000014       2.05330046E-08
 -0.239999995       2.09249418E-08
 -0.119999997       2.12639826E-08
  -1.11022302E-15   2.15065352E-08
  0.119999997       2.16116138E-08
  0.239999995       2.15490097E-08
  0.360000014       2.13045208E-08
  0.479999989       2.08807833E-08
  0.600000024       2.02937098E-08
  0.720000029       1.95657410E-08
  0.839999974       1.87178415E-08
  0.959999979       1.77623782E-08
   1.08000004       1.66984577E-08
   1.20000005       1.55103237E-08
   1.32000005       1.41685250E-08
   1.44000006       1.26328104E-08
   1.55999994       1.08557439E-08
   1.67999995       8.78627748E-09
   1.79999995       6.37298259E-09
   1.91999996       3.56715746E-09
   2.03999996       3.25909161E-10
   2.16000009      -3.38499095E-09
   2.27999997      -7.58928298E-09
   2.40000010      -1.23004007E-08
   2.51999998      -1.75248154E-08
   2.64000010      -2.32684432E-08
   2.75999999      -2.95453209E-08
   2.88000011      -3.63863677E-08
   3.00000000      -4.38456595E-08
   3.11999989      -5.20018020E-08
   3.24000001      -6.09536457E-08
   3.35999990      -7.08108843E-08
   3.48000002      -8.16821526E-08
   3.59999990      -9.36640987E-08
   3.72000003      -1.06834683E-07
   3.83999991      -1.21252683E-07
   3.96000004      -1.36963422E-07
   4.07999992      -1.54008490E-07
   4.19999981      -1.72436557E-07
   4.32000017      -1.92311433E-07
   4.44000006      -2.13715410E-07
   4.55999994      -2.36747439E-07
   4.67999983      -2.61517613E-07
   4.80000019      -2.88140626E-07
   4.92000008      -3.16730791E-07
   5.03999996      -3.47400174E-07
   5.15999985      -3.80259991E-07
   5.28000021      -4.15423784E-07
   5.40000010      -4.53010244E-07
   5.51999998      -4.93144796E-07
   5.63999987      -5.35959089E-07
   5.76000023      -5.81590996E-07
   5.88000011      -6.30185184E-07
   6.00000000      -6.81897234E-07
   6.11999989      -7.36899722E-07
   6.23999977      -7.95388246E-07
   6.36000013      -8.57585349E-07
   6.48000002      -9.23737048E-07
   6.59999990      -9.94103175E-07
   6.71999979      -1.06894367E-06
   6.84000015      -1.14850377E-06
   6.96000004      -1.23300754E-06
   7.07999992      -1.32265995E-06
   7.19999981      -1.41766009E-06
   7.32000017      -1.51822132E-06
   7.44000006      -1.62459173E-06
   7.55999994      -1.73706667E-06
   7.67999983      -1.85598731E-06
   7.80000019      -1.98172779E-06
   7.92000008      -2.11467227E-06
   8.03999996      -2.25519238E-06
   8.15999985      -2.40363283E-06
   8.27999973      -2.56030899E-06
   8.39999962      -2.72552188E-06
   8.52000046      -2.89957620E-06
   8.64000034      -3.08280414E-06
   8.76000023      -3.27557882E-06
   8.88000011      -3.47831678E-06
   9.00000000      -3.69146824E-06
   9.11999989      -3.91549975E-06
   9.23999977      -4.15087652E-06
   9.35999966      -4.39805126E-06
   9.47999954      -4.65746189E-06
   9.60000038      -4.92953768E-06
   9.72000027      -5.21471520E-06
   9.84000015      -5.51344510E-06
   9.96000004      -5.82620623E-06
   10.0799999      -6.15350837E-06
   10.1999998      -6.49588628E-06
   10.3199997      -6.85389750E-06
   10.4399996      -7.22811592E-06
   10.5600004      -7.61912588E-06
   10.6800003      -8.02752493E-06
   10.8000002      -8.45392515E-06
   10.9200001      -8.89895182E-06
   11.0400000      -9.36324341E-06
   11.1599998      -9.84745111E-06
   11.2799997      -1.03522261E-05
   11.3999996      -1.08782224E-05
   11.5200005      -1.14260829E-05
   11.6400003      -1.19964479E-05
   11.7600002      -1.25899605E-05
   11.8800001      -1.32072782E-05
   12.0000000      -1.38490905E-05
   12.1199999      -1.45161284E-05
   12.2399998      -1.52091707E-05
   12.3599997      -1.59290394E-05
   12.4799995      -1.66765803E-05
   12.6000004      -1.74526485E-05
   12.7200003      -1.82580752E-05
   12.8400002      -1.90936680E-05
   12.9600000      -1.99601964E-05
   13.0799999      -2.08584006E-05
   13.1999998      -2.17890156E-05
   13.3199997      -2.27527908E-05
   13.4399996      -2.37505083E-05
   13.5600004      -2.47829867E-05
   13.6800003      -2.58510809E-05
   13.8000002      -2.69556640E-05
   13.9200001      -2.80976110E-05
   14.0400000      -2.92777931E-05
   14.1599998      -3.04970581E-05
   14.2799997      -3.17562299E-05
   14.3999996      -3.30561306E-05
   14.5200005      -3.43975626E-05
   14.6400003      -3.57813260E-05
   14.7600002      -3.72082322E-05
   14.8800001      -3.86791107E-05
   15.0000000      -4.01947982E-05
   15.1199999      -4.17561459E-05
   15.2399998      -4.33640089E-05
   15.3599997      -4.50192274E-05
   15.4799995      -4.67226382E-05
   15.6000004      -4.84750344E-05
   15.7200003      -5.02771691E-05
   15.8400002      -5.21297770E-05
   15.9600000      -5.40335568E-05
   16.0799999      -5.59891887E-05
   16.2000008      -5.79973494E-05
   16.3199997      -6.00587082E-05
   16.4400005      -6.21739309E-05
   16.5599995      -6.43436651E-05
   16.6800003      -6.65685220E-05
   16.7999992      -6.88490763E-05
   16.9200001      -7.11859029E-05
   17.0400009      -7.35795038E-05
   17.1599998      -7.60303956E-05
   17.2800007      -7.85390584E-05
   17.3999996      -8.11059581E-05
   17.5200005      -8.37315456E-05
   17.6399994      -8.64162139E-05
   17.7600002      -8.91603195E-05
   17.8799992      -9.19641316E-05
   18.0000000      -9.48278757E-05
   18.1200008      -9.77516902E-05
   18.2399998      -1.00735655E-04
   18.3600006      -1.03779821E-04
   18.4799995      -1.06884174E-04
   18.6000004      -1.10048684E-04
   18.7199993      -1.13273243E-04
   18.8400002      -1.16557705E-04
   18.9599991      -1.19901844E-04
   19.0799999      -1.23305348E-04
   19.2000008      -1.26767860E-04
   19.3199997      -1.30288900E-04
   19.4400005      -1.33867958E-04
   19.5599995      -1.37504496E-04
   19.6800003      -1.41197888E-04
   19.7999992      -1.44947495E-04
   19.9200001      -1.48752632E-04
   20.0400009      -1.52612527E-04
   20.1599998      -1.56526265E-04
   20.2800007      -1.60492869E-04
   20.3999996      -1.64511192E-04
   20.5200005      -1.68579965E-04
   20.6399994      -1.72697793E-04
   20.7600002      -1.76863134E-04
   20.8799992      -1.81074385E-04
   21.0000000      -1.85329831E-04
   21.1200008      -1.89627681E-04
   21.2399998      -1.93966058E-04
   21.3600006      -1.98343012E-04
   21.4799995      -2.02756477E-04
   21.6000004      -2.07204343E-04
   21.7199993      -2.11684368E-04
   21.8400002      -2.16194254E-04
   21.9599991      -2.20731556E-04
   22.0799999      -2.25293668E-04
   22.2000008      -2.29877813E-04
   22.3199997      -2.34481064E-04
   22.4400005      -2.39100322E-04
   22.5599995      -2.43732371E-04
   22.6800003      -2.48373894E-04
   22.7999992      -2.53021542E-04
   22.9200001      -2.57671869E-04
   23.0400009      -2.62321410E-04
   23.1599998      -2.66966526E-04
   23.2800007      -2.71603465E-04
   23.3999996      -2.76228297E-04
   23.5200005      -2.80836946E-04
   23.6399994      -2.85425136E-04
   23.7600002      -2.89988442E-04
   23.8799992      -2.94522266E-04
   24.0000000      -2.99021980E-04
   24.1200008      -3.03482870E-04
   24.2399998      -3.07900104E-04
   24.3600006      -3.12268792E-04
   24.4799995      -3.16583988E-04
   24.6000004      -3.20840569E-04
   24.7199993      -3.25033354E-04
   24.8400002      -3.29157047E-04
   24.9599991      -3.33206175E-04
   25.0799999      -3.37175123E-04
   25.2000008      -3.41058127E-04
   25.3199997      -3.44849337E-04
   25.4400005      -3.48542846E-04
   25.5599995      -3.52132687E-04
   25.6800003      -3.55612836E-04
   25.7999992      -3.58977239E-04
   25.9200001      -3.62219929E-04
   26.0400009      -3.65334796E-04
   26.1599998      -3.68315697E-04
   26.2800007      -3.71156493E-04
   26.3999996      -3.73850897E-04
   26.5200005      -3.76392563E-04
   26.6399994      -3.78775178E-04
   26.7600002      -3.80992366E-04
   26.8799992      -3.83037725E-04
   27.0000000      -3.84904939E-04
   27.1200008      -3.86587722E-04
   27.2399998      -3.88079759E-04
   27.3600006      -3.89374851E-04
   27.4799995      -3.90466681E-04
   27.6000004      -3.91348993E-04
   27.7199993      -3.92015500E-04
   27.8400002      -3.92459944E-04
   27.9599991      -3.92676186E-04
   28.0799999      -3.92658258E-04
   28.2000008      -3.92400339E-04
   28.3199997      -3.91896872E-04
   28.4400005      -3.91142472E-04
   28.5599995      -3.90131812E-04
   28.6800003      -3.88859771E-04
   28.7999992      -3.87321168E-04
   28.9200001      -3.85510939E-04
   29.0400009      -3.83424020E-04
   29.1599998      -3.81055579E-04
   29.2800007      -3.78400815E-04
   29.3999996      -3.75455391E-04
   29.5200005      -3.72215145E-04
   29.6399994      -3.68676207E-04
   29.7600002      -3.64834967E-04
   29.8799992      -3.60688136E-04
   30.0000000      -3.56232631E-04
   30.1200008      -3.51465686E-04
   30.2399998      -3.46384855E-04
   30.3600006      -3.40988016E-04
   30.4799995      -3.35273333E-04
   30.6000004      -3.29239265E-04
   30.7199993      -3.22884560E-04
   30.8400002      -3.16208170E-04
   30.9599991      -3.09209398E-04
   31.0799999      -3.01887718E-04
   31.2000008      -2.94243073E-04
   31.3199997      -2.86275754E-04
   31.4400005      -2.77986401E-04
   31.5599995      -2.69376178E-04
   31.6800003      -2.60446657E-04
   31.7999992      -2.51199730E-04
   31.9200001      -2.41637841E-04
   32.0400009      -2.31763755E-04
   32.1599998      -2.21580645E-04
   32.2799988      -2.11092090E-04
   32.4000015      -2.00302136E-04
   32.5200005      -1.89215149E-04
   32.6399994      -1.77835871E-04
   32.7599983      -1.66169368E-04
   32.8800011      -1.54221096E-04
   33.0000000      -1.41996876E-04
   33.1199989      -1.29502892E-04
   33.2400017      -1.16745832E-04
   33.3600006      -1.03732811E-04
   33.4799995      -9.04714398E-05
   33.5999985      -7.69698017E-05
   33.7200012      -6.32364245E-05
   33.8400002      -4.92802137E-05
   33.9599991      -3.51104609E-05
   34.0800018      -2.07367630E-05
   34.2000008      -6.16904617E-06
   34.3199997       8.58246585E-06
   34.4399986       2.35072021E-05
   34.5600014       3.85942258E-05
   34.6800003       5.38321801E-05
   34.7999992       6.92093527E-05
   34.9199982       8.47136835E-05
   35.0400009       1.00332843E-04
   35.1599998       1.16054223E-04
   35.2799988       1.31865061E-04
   35.4000015       1.47752391E-04
   35.5200005       1.63703065E-04
   35.6399994       1.79703740E-04
   35.7599983       1.95740839E-04
   35.8800011       2.11800550E-04
   36.0000000       2.27868819E-04
   36.1199989       2.43931427E-04
   36.2400017       2.59974011E-04
   36.3600006       2.75982020E-04
   36.4799995       2.91940756E-04
   36.5999985       3.07835493E-04
   36.7200012       3.23651358E-04
   36.8400002       3.39373481E-04
   36.9599991       3.54987103E-04
   37.0800018       3.70477472E-04
   37.2000008       3.85829975E-04
   37.3199997       4.01030149E-04
   37.4399986       4.16063587E-04
   37.5600014       4.30915970E-04
   37.6800003       4.45573009E-04
   37.7999992       4.60020674E-04
   37.9199982       4.74244851E-04
   38.0400009       4.88231686E-04
   38.1599998       5.01967559E-04
   38.2799988       5.15438966E-04
   38.4000015       5.28632721E-04
   38.5200005       5.41536021E-04
   38.6399994       5.54136059E-04
   38.7599983       5.66420553E-04
   38.8800011       5.78377454E-04
   39.0000000       5.89995063E-04
   39.1199989       6.01262320E-04
   39.2400017       6.12168456E-04
   39.3600006       6.22703345E-04
   39.4799995       6.32857089E-04
   39.5999985       6.42620318E-04
   39.7200012       6.51984185E-04
   39.8400002       6.60940073E-04
   39.9599991       6.69480010E-04
   40.0800018       6.77596428E-04
   40.2000008       6.85282343E-04
   40.3199997       6.92531292E-04
   40.4399986       6.99337164E-04
   40.5600014       7.05694547E-04
   40.6800003       7.11598375E-04
   40.7999992       7.17044109E-04
   40.9199982       7.22028024E-04
   41.0400009       7.26546743E-04
   41.1599998       7.30597880E-04
   41.2799988       7.34179688E-04
   41.4000015       7.37290946E-04
   41.5200005       7.39931304E-04
   41.6399994       7.42100819E-04
   41.7599983       7.43800134E-04
   41.8800011       7.45030353E-04
   42.0000000       7.45793164E-04
   42.1199989       7.46090896E-04
   42.2400017       7.45926285E-04
   42.3600006       7.45302823E-04
   42.4799995       7.44224526E-04
   42.5999985       7.42695993E-04
   42.7200012       7.40722287E-04
   42.8400002       7.38308998E-04
   42.9599991       7.35462352E-04
   43.0800018       7.32189161E-04
   43.2000008       7.28496583E-04
   43.3199997       7.24392710E-04
   43.4399986       7.19885807E-04
   43.5600014       7.14984897E-04
   43.6800003       7.09699525E-04
   43.7999992       7.04039587E-04
   43.9199982       6.98015327E-04
   44.0400009       6.91637455E-04
   44.1599998       6.84916973E-04
   44.2799988       6.77865115E-04
   44.4000015       6.70493522E-04
   44.5200005       6.62813778E-04
   44.6399994       6.54838281E-04
   44.7599983       6.46579312E-04
   44.8800011       6.38049620E-04
   45.0000000       6.29262126E-04
   45.1199989       6.20230101E-04
   45.2400017       6.10966992E-04
   45.3600006       6.01486536E-04
   45.4799995       5.91802702E-04
   45.5999985       5.81929460E-04
   45.7200012       5.71881130E-04
   45.8400002       5.61672146E-04
   45.9599991       5.51316654E-04
   46.0800018       5.40828856E-04
   46.2000008       5.30222896E-04
   46.3199997       5.19512629E-04
   46.4399986       5.08711848E-04
   46.5600014       4.97834233E-04
   46.6800003       4.86893550E-04
   46.7999992       4.75903536E-04
   46.9199982       4.64877900E-04
   47.0400009       4.53830144E-04
   47.1599998       4.42773715E-04
   47.2799988       4.31721768E-04
   47.4000015       4.20687225E-04
   47.5200005       4.09682892E-04
   47.6399994       3.98721313E-04
   47.7599983       3.87814856E-04
   47.8800011       3.76975484E-04
   48.0000000       3.66214867E-04
   48.1199989       3.55544063E-04
   48.2400017       3.44973843E-04
   48.3600006       3.34514392E-04
   48.4799995       3.24175664E-04
   48.5999985       3.13967292E-04
   48.7200012       3.03898676E-04
   48.8400002       2.93978839E-04
   48.9599991       2.84216483E-04
   49.0800018       2.74619815E-04
   49.2000008       2.65196693E-04
   49.3199997       2.55954394E-04
   49.4399986       2.46899872E-04
   49.5600014       2.38039647E-04
   49.6800003       2.29379861E-04
   49.7999992       2.20926217E-04
   49.9199982       2.12683939E-04
   50.0400009       2.04657699E-04
   50.1599998       1.96851674E-04
   50.2799988       1.89269456E-04
   50.4000015       1.81914278E-04
   50.5200005       1.74788875E-04
   50.6399994       1.67895618E-04
   50.7599983       1.61236443E-04
   50.8800011       1.54812937E-04
   51.0000000       1.48626190E-04
   51.1199989       1.42676930E-04
   51.2400017       1.36965507E-04
   51.3600006       1.31491935E-04
   51.4799995       1.26255894E-04
   51.5999985       1.21256751E-04
   51.7200012       1.16493466E-04
   51.8400002       1.11964582E-04
   51.9599991       1.07668231E-04
   52.0800018       1.03602077E-04
   52.2000008       9.97634197E-05
   52.3199997       9.61492551E-05
   52.4399986       9.27562942E-05
   52.5600014       8.95810081E-05
   52.6800003       8.66195987E-05
   52.7999992       8.38679916E-05
   52.9199982       8.13218358E-05
   53.0400009       7.89764817E-05
   53.1599998       7.68270693E-05
   53.2799988       7.48686070E-05
   53.4000015       7.30959946E-05
   53.5200005       7.15040733E-05
   53.6399994       7.00875680E-05
   53.7599983       6.88410946E-05
   53.8800011       6.77590651E-05
   54.0000000       6.68356734E-05
   54.1199989       6.60649021E-05
   54.2400017       6.54405958E-05
   54.3600006       6.49564827E-05
   54.4799995       6.46062617E-05
   54.5999985       6.43836102E-05
   54.7200012       6.42822124E-05
   54.8400002       6.42957602E-05
   54.9599991       6.44179236E-05
   55.0800018       6.46423578E-05
   55.2000008       6.49627254E-05
   55.3199997       6.53727329E-05
   55.4399986       6.58662102E-05
   55.5600014       6.64370891E-05
   55.6800003       6.70794325E-05
   55.7999992       6.77874123E-05
   55.9199982       6.85552586E-05
   56.0400009       6.93772163E-05
   56.1599998       7.02474936E-05
   56.2799988       7.11603061E-05
   56.4000015       7.21099423E-05
   56.5200005       7.30907996E-05
   56.6399994       7.40975229E-05
   56.7599983       7.51250191E-05
   56.8800011       7.61684132E-05
   57.0000000       7.72230487E-05
   57.1199989       7.82843344E-05
   57.2400017       7.93477302E-05
   57.3600006       8.04087103E-05
   57.4799995       8.14628293E-05
   57.5999985       8.25058232E-05
   57.7200012       8.35337196E-05
   57.8400002       8.45428876E-05
   57.9599991       8.55300023E-05
   58.0800018       8.64920148E-05
   58.2000008       8.74259786E-05
   58.3199997       8.83290486E-05
   58.4399986       8.91983800E-05
   58.5600014       9.00312443E-05
   58.6800003       9.08250804E-05
   58.7999992       9.15775963E-05
   58.9199982       9.22867694E-05
   59.0400009       9.29508387E-05
   59.1599998       9.35681892E-05
   59.2799988       9.41372782E-05
   59.4000015       9.46566070E-05
   59.5200005       9.51246911E-05
   59.6399994       9.55401774E-05
   59.7599983       9.59019599E-05
   59.8800011       9.62092090E-05
   60.0000000       9.64614446E-05
   60.1199989       9.66584485E-05
   60.2400017       9.68001696E-05
   60.3600006       9.68866880E-05
   60.4799995       9.69180692E-05
   60.5999985       9.68944150E-05
   60.7200012       9.68158856E-05
   60.8400002       9.66827138E-05
   60.9599991       9.64952415E-05
   61.0800018       9.62539416E-05
   61.2000008       9.59593453E-05
   61.3199997       9.56120639E-05
   61.4399986       9.52127884E-05
   61.5600014       9.47623048E-05
   61.6800003       9.42615297E-05
   61.7999992       9.37115474E-05
   61.9199982       9.31135946E-05
   62.0400009       9.24690539E-05
   62.1599998       9.17793586E-05
   62.2799988       9.10459930E-05
   62.4000015       9.02704196E-05
   62.5200005       8.94540644E-05
   62.6399994       8.85983609E-05
   62.7599983       8.77047714E-05
   62.8800011       8.67747876E-05
   63.0000000       8.58099738E-05
   63.1199989       8.48119234E-05
   63.2400017       8.37822299E-05
   63.3600006       8.27225231E-05
   63.4799995       8.16344182E-05
   63.5999985       8.05195232E-05
   63.7200012       7.93794316E-05
   63.8400002       7.82157367E-05
   63.9599991       7.70300248E-05
   64.0800018       7.58238748E-05
   64.1999969       7.45989018E-05
   64.3199997       7.33567285E-05
   64.4400024       7.20990429E-05
   64.5599976       7.08275547E-05
   64.6800003       6.95439812E-05
   64.8000031       6.82499958E-05
   64.9199982       6.69471920E-05
   65.0400009       6.56370685E-05
   65.1600037       6.43210078E-05
   65.2799988       6.30003051E-05
   65.4000015       6.16762336E-05
   65.5199966       6.03500339E-05
   65.6399994       5.90229793E-05
   65.7600021       5.76963212E-05
   65.8799973       5.63712856E-05
   66.0000000       5.50490295E-05
   66.1200027       5.37306514E-05
   66.2399979       5.24171992E-05
   66.3600006       5.11097096E-05
   66.4800034       4.98092450E-05
   66.5999985       4.85169039E-05
   66.7200012       4.72337961E-05
   66.8399963       4.59610128E-05
   66.9599991       4.46995364E-05
   67.0800018       4.34502035E-05
   67.1999969       4.22136945E-05
   67.3199997       4.09905406E-05
   67.4400024       3.97811782E-05
   67.5599976       3.85860440E-05
   67.6800003       3.74055780E-05
   67.8000031       3.62402898E-05
   67.9199982       3.50907176E-05
   68.0400009       3.39573817E-05
   68.1600037       3.28407550E-05
   68.2799988       3.17412487E-05
   68.4000015       3.06592010E-05
   68.5199966       2.95949430E-05
   68.6399994       2.85488259E-05
   68.7600021       2.75212424E-05
   68.8799973       2.65126000E-05
   69.0000000       2.55232626E-05
   69.1200027       2.45534757E-05
   69.2399979       2.36033011E-05
   69.3600006       2.26726315E-05
   69.4800034       2.17612287E-05
   69.5999985       2.08688325E-05
   69.7200012       1.99952556E-05
   69.8399963       1.91404233E-05
   69.9599991       1.83043812E-05
   70.0800018       1.74872093E-05
   70.1999969       1.66889513E-05
   70.3199997       1.59095362E-05
   70.4400024       1.51487793E-05
   70.5599976       1.44064252E-05
   70.6800003       1.36822255E-05
   70.8000031       1.29759992E-05
   70.9199982       1.22876390E-05
   71.0400009       1.16170622E-05
   71.1600037       1.09641342E-05
   71.2799988       1.03286020E-05
   71.4000015       9.71008376E-06
   71.5199966       9.10812287E-06
   71.6399994       8.52226913E-06
   71.7600021       7.95216056E-06
   71.8799973       7.39754114E-06
   72.0000000       6.85822124E-06
   72.1200027       6.33398804E-06
   72.2399979       5.82453004E-06
   72.3600006       5.32941749E-06
   72.4800034       4.84815337E-06
   72.5999985       4.38027564E-06
   72.7200012       3.92545508E-06