  -30.0000000       0.00000000    
  -29.8799992       0.00000000    
  -29.7600002       0.00000000    
  -29.6399994       0.00000000    
  -29.5200005       0.00000000    
  -29.3999996       0.00000000    
  -29.2800007       0.00000000    
  -29.1599998       0.00000000    
  -29.0400009      -4.38828169E-31
  -28.9200001      -1.08791013E-29
  -28.7999992      -1.00555162E-28
  -28.6800003      -5.27841883E-28
  -28.5599995      -1.76800754E-27
  -28.4400005      -3.57101270E-27
  -28.3199997      -1.44734579E-27
  -28.2000008       1.96889035E-26
  -28.0799999       8.84923579E-26
  -27.9599991       2.29759831E-25
  -27.8400002       4.07051561E-25
  -27.7199993       4.35589320E-25
  -27.6000004      -4.95535889E-26
  -27.4799995      -1.40883103E-24
  -27.3600006      -3.48434655E-24
  -27.2399998      -4.95612119E-24
  -27.1200008      -3.29684930E-24
  -27.0000000       3.65510812E-24
  -26.8799992       1.42317702E-23
  -26.7600002       1.95923214E-23
  -26.6399994       5.40374138E-24
  -26.5200005      -3.61257116E-23
  -26.3999996      -8.46155305E-23
  -26.2800007      -7.47602155E-23
  -26.1599998       8.66049746E-23
  -26.0400009       4.42002375E-22
  -25.9200001       8.51367063E-22
  -25.7999992       8.86498510E-22
  -25.6800003      -9.55539831E-23
  -25.5599995      -2.55009867E-21
  -25.4400005      -6.02253321E-21
  -25.3199997      -8.44295254E-21
  -25.2000008      -6.13155909E-21
  -25.0799999       4.70774861E-21
  -24.9599991       2.47613027E-20
  -24.8400002       4.76657529E-20
  -24.7199993       5.79513367E-20
  -24.6000004       3.43242990E-20
  -24.4799995      -3.94241647E-20
  -24.3600006      -1.57534648E-19
  -24.2399998      -2.76950564E-19
  -24.1200008      -3.15956550E-19
  -24.0000000      -1.78771851E-19
  -23.8799992       1.91130136E-19
  -23.7600002       7.43818023E-19
  -23.6399994       1.27617228E-18
  -23.5200005       1.44956526E-18
  -23.3999996       9.03108969E-19
  -23.2800007      -5.46536170E-19
  -23.1599998      -2.68578390E-18
  -23.0400009      -4.78201136E-18
  -22.9200001      -5.68301949E-18
  -22.7999992      -4.20171231E-18
  -22.6800003       2.76873869E-19
  -22.5599995       7.18005593E-18
  -22.4400005       1.44400159E-17
  -22.3199997       1.87894473E-17
  -22.2000008       1.67726139E-17
  -22.0799999       6.27491148E-18
  -21.9599991      -1.19491773E-17
  -21.8400002      -3.34521898E-17
  -21.7199993      -5.05876531E-17
  -21.6000004      -5.45429992E-17
  -21.4799995      -3.85362205E-17
  -21.3600006      -1.21584259E-18
  -21.2399998       5.10227997E-17
  -21.1200008       1.03983134E-16
  -21.0000000       1.38485347E-16
  -20.8799992       1.35783537E-16
  -20.7600002       8.43659771E-17
  -20.6399994      -1.38031050E-17
  -20.5200005      -1.39830912E-16
  -20.3999996      -2.59183373E-16
  -20.2800007      -3.28750586E-16
  -20.1599998      -3.09208133E-16
  -20.0400009      -1.80214849E-16
  -19.9200001       4.60243723E-17
  -19.7999992       3.18583412E-16
  -19.6800003       5.54348812E-16
  -19.5599995       6.59625055E-16
  -19.4400005       5.63675704E-16
  -19.3199997       2.54382576E-16
  -19.2000008      -1.98912665E-16
  -19.0799999      -6.50499969E-16
  -18.9599991      -9.19267811E-16
  -18.8400002      -8.59392587E-16
  -18.7199993      -4.37804331E-16
  -18.6000004       2.16452361E-16
  -18.4799995       8.24898282E-16
  -18.3600006       1.04998723E-15
  -18.2399998       6.45951084E-16
  -18.1200008      -3.83099794E-16
  -18.0000000      -1.69341379E-15
  -17.8799992      -2.64852252E-15
  -17.7600002      -2.52812971E-15
  -17.6399994      -8.54639462E-16
  -17.5200005       2.27804492E-15
  -17.3999996       6.02773040E-15
  -17.2800007       8.91237225E-15
  -17.1599998       9.24807597E-15
  -17.0400009       5.82556862E-15
  -16.9200001      -1.39949579E-15
  -16.7999992      -1.08986383E-14
  -16.6800003      -1.97034161E-14
  -16.5599995      -2.41778982E-14
  -16.4400005      -2.12867443E-14
  -16.3199997      -9.97063150E-15
  -16.2000008       7.90297918E-15
  -16.0799999       2.75056704E-14
  -15.9600000       4.21722153E-14
  -15.8400002       4.55174940E-14
  -15.7200003       3.39445980E-14
  -15.6000004       8.64633191E-15
  -15.4799995      -2.38041246E-14
  -15.3599997      -5.28254164E-14
  -15.2399998      -6.70636235E-14
  -15.1199999      -5.86312953E-14
  -15.0000000      -2.68992626E-14
  -14.8800001       1.97556340E-14
  -14.7600002       6.53858274E-14
  -14.6400003       9.12137458E-14
  -14.5200005       8.25090999E-14
  -14.3999996       3.53278808E-14
  -14.2799997      -3.95932270E-14
  -14.1599998      -1.17926312E-13
  -14.0400000      -1.68417106E-13
  -13.9200001      -1.63614768E-13
  -13.8000002      -9.12460415E-14
  -13.6800003       3.80830824E-14
  -13.5600004       1.90498130E-13
  -13.4399996       3.17158300E-13
  -13.3199997       3.69433515E-13
  -13.1999998       3.16169237E-13
  -13.0799999       1.56765239E-13
  -12.9600000      -7.53706925E-14
  -12.8400002      -3.21286102E-13
  -12.7200003      -5.14688010E-13
  -12.6000004      -6.03612538E-13
  -12.4799995      -5.67321960E-13
  -12.3599997      -4.21454267E-13
  -12.2399998      -2.08801211E-13
  -12.1199999       2.09529168E-14
  -12.0000000       2.33987227E-13
  -11.8800001       4.26919920E-13
  -11.7600002       6.24819369E-13
  -11.6400003       8.60628138E-13
  -11.5200005       1.14233276E-12
  -11.3999996       1.42137983E-12
  -11.2799997       1.57867014E-12
  -11.1599998       1.44107621E-12
  -11.0400000       8.32044232E-13
  -10.9200001      -3.53056966E-13
  -10.8000002      -2.06845652E-12
  -10.6800003      -4.06513842E-12
  -10.5600004      -5.89093704E-12
  -10.4399996      -6.95964163E-12
  -10.3199997      -6.68600288E-12
  -10.1999998      -4.66111351E-12
  -10.0799999      -8.23618083E-13
  -9.96000004       4.42664742E-12
  -9.84000015       1.02197114E-11
  -9.72000027       1.53359044E-11
  -9.60000038       1.84458213E-11
  -9.47999954       1.84221631E-11
  -9.35999966       1.46466259E-11
  -9.23999977       7.22559686E-12
  -9.11999989      -2.95480329E-12
  -9.00000000      -1.43625155E-11
  -8.88000011      -2.51154843E-11
  -8.76000023      -3.33619347E-11
  -8.64000034      -3.76386249E-11
  -8.52000046      -3.71072235E-11
  -8.39999962      -3.16114669E-11
  -8.27999973      -2.15628019E-11
  -8.15999985      -7.72651908E-12
  -8.03999996       8.98230969E-12
  -7.92000008       2.75910180E-11
  -7.80000019       4.70006117E-11
  -7.67999983       6.57875351E-11
  -7.55999994       8.19843290E-11
  -7.44000006       9.29863270E-11
  -7.32000017       9.57115359E-11
  -7.19999981       8.70616773E-11
  -7.07999992       6.46197609E-11
  -6.96000004       2.74151275E-11
  -6.84000015      -2.34666123E-11
  -6.71999979      -8.46277493E-11
  -6.59999990      -1.50555887E-10
  -6.48000002      -2.14231036E-10
  -6.36000013      -2.67963041E-10
  -6.23999977      -3.04202996E-10
  -6.11999989      -3.16088294E-10
  -6.00000000      -2.97585706E-10
  -5.88000011      -2.43257664E-10
  -5.76000023      -1.47833773E-10
  -5.63999987      -5.86291042E-12
  -5.51999998       1.88289676E-10
  -5.40000010       4.39948605E-10
  -5.28000021       7.53172191E-10
  -5.15999985       1.12955767E-09
  -5.03999996       1.56716018E-09
  -4.92000008       2.05989137E-09
  -4.80000019       2.59766053E-09
  -4.67999983       3.16732152E-09
  -4.55999994       3.75425691E-09
  -4.44000006       4.34425518E-09
  -4.32000017       4.92525221E-09
  -4.19999981       5.48857670E-09
  -4.07999992       6.02948802E-09
  -3.96000004       6.54703136E-09
  -3.83999991       7.04343162E-09
  -3.72000003       7.52334550E-09
  -3.59999990       7.99330646E-09
  -3.48000002       8.46152304E-09
  -3.35999990       8.93802188E-09
  -3.24000001       9.43492839E-09
  -3.11999989       9.96655025E-09
  -3.00000000       1.05489768E-08
  -2.88000011       1.11990497E-08
  -2.75999999       1.19328032E-08
  -2.64000010       1.27637092E-08
  -2.51999998       1.37011762E-08
  -2.40000010       1.47497952E-08
  -2.27999997       1.59095723E-08
  -2.16000009       1.71771291E-08
  -2.03999996       1.85475386E-08
  -1.91999996       2.00162429E-08
  -1.79999995       2.15804619E-08
  -1.67999995       2.32397728E-08
  -1.55999994       2.49957743E-08
  -1.44000006       2.68511666E-08
  -1.32000005       2.88088966E-08
  -1.20000005       3.08718491E-08
  -1.08000004       3.30434666E-08
 -0.959999979       3.53292009E-08
 -0.839999974       3.77382250E-08
 -0.720000029       4.02846716E-08
 -0.600000024       4.29877858E-08
 -0.479999989       4.58705749E-08
 -0.360000014       4.89574319E-08
 -0.239999995       5.22714245E-08
 -0.119999997       5.58323947E-08
  -1.11022302E-15   5.96567133E-08
  0.119999997       6.37588471E-08
  0.239999995       6.81543995E-08
  0.360000014       7.28633083E-08
  0.479999989       7.79119844E-08
  0.600000024       8.33333687E-08
  0.720000029       8.91647289E-08
  0.839999974       9.54438377E-08
  0.959999979       1.02204972E-07
   1.08000004       1.09476247E-07
   1.20000005       1.17279228E-07
   1.32000005       1.25630848E-07
   1.44000006       1.34546838E-07
   1.55999994       1.44044776E-07
   1.67999995       1.54145852E-07
   1.79999995       1.64874024E-07
   1.91999996       1.76253195E-07
   2.03999996       1.88303915E-07
   2.16000009       2.01041118E-07
   2.27999997       2.14474696E-07
   2.40000010       2.28613104E-07
   2.51999998       2.43469259E-07
   2.64000010       2.59066809E-07
   2.75999999       2.75444307E-07
   2.88000011       2.92656068E-07
   3.00000000       3.10768485E-07
   3.11999989       3.29854004E-07
   3.24000001       3.49983992E-07
   3.35999990       3.71223905E-07
   3.48000002       3.93631780E-07
   3.59999990       4.17261077E-07
   3.72000003       4.42166197E-07
   3.83999991       4.68408473E-07
   3.96000004       4.96059727E-07
   4.07999992       5.25202211E-07
   4.19999981       5.55923634E-07
   4.32000017       5.88310172E-07
   4.44000006       6.22438563E-07
   4.55999994       6.58371846E-07
   4.67999983       6.96158907E-07
   4.80000019       7.35839706E-07
   4.92000008       7.77454147E-07
   5.03999996       8.21051287E-07
   5.15999985       8.66696951E-07
   5.28000021       9.14476800E-07
   5.40000010       9.64494347E-07
   5.51999998       1.01686396E-06
   5.63999987       1.07170320E-06
   5.76000023       1.12912539E-06
   5.88000011       1.18923481E-06
   6.00000000       1.25212728E-06
   6.11999989       1.31789398E-06
   6.23999977       1.38662654E-06
   6.36000013       1.45842375E-06
   6.48000002       1.53339568E-06
   6.59999990       1.61166236E-06
   6.71999979       1.69335306E-06
   6.84000015       1.77859954E-06
   6.96000004       1.86753107E-06
   7.07999992       1.96026963E-06
   7.19999981       2.05692936E-06
   7.32000017       2.15761611E-06
   7.44000006       2.26243151E-06
   7.55999994       2.37147788E-06
   7.67999983       2.48486094E-06
   7.80000019       2.60269371E-06
   7.92000008       2.72509487E-06
   8.03999996       2.85218744E-06
   8.15999985       2.98409623E-06
   8.27999973       3.12094335E-06
   8.39999962       3.26284794E-06
   8.52000046       3.40992506E-06
   8.64000034       3.56228679E-06
   8.76000023       3.72004547E-06
   8.88000011       3.88331546E-06
   9.00000000       4.05221681E-06
   9.11999989       4.22687708E-06
   9.23999977       4.40742906E-06
   9.35999966       4.59401235E-06
   9.47999954       4.78676884E-06
   9.60000038       4.98583995E-06
   9.72000027       5.19136165E-06
   9.84000015       5.40346173E-06
   9.96000004       5.62225523E-06
   10.0799999       5.84784402E-06
   10.1999998       6.08031542E-06
   10.3199997       6.31974581E-06
   10.4399996       6.56620387E-06
   10.5600004       6.81975507E-06
   10.6800003       7.08046355E-06
   10.8000002       7.34839568E-06
   10.9200001       7.62361651E-06
   11.0400000       7.90618742E-06
   11.1599998       8.19616071E-06
   11.2799997       8.49357821E-06
   11.3999996       8.79847084E-06
   11.5200005       9.11085408E-06
   11.6400003       9.43073974E-06
   11.7600002       9.75812782E-06
   11.8800001       1.00930201E-05
   12.0000000       1.04354094E-05
   12.1199999       1.07852829E-05
   12.2399998       1.11426180E-05
   12.3599997       1.15073735E-05
   12.4799995       1.18794969E-05
   12.6000004       1.22589163E-05
   12.7200003       1.26455507E-05
   12.8400002       1.30393064E-05
   12.9600000       1.34400861E-05
   13.0799999       1.38477917E-05
   13.1999998       1.42623167E-05
   13.3199997       1.46835519E-05
   13.4399996       1.51113754E-05
   13.5600004       1.55456455E-05
   13.6800003       1.59861975E-05
   13.8000002       1.64328394E-05
   13.9200001       1.68853512E-05
   14.0400000       1.73434910E-05
   14.1599998       1.78069931E-05
   14.2799997       1.82755757E-05
   14.3999996       1.87489422E-05
   14.5200005       1.92267889E-05
   14.6400003       1.97087993E-05
   14.7600002       2.01946514E-05
   14.8800001       2.06840068E-05
   15.0000000       2.11765164E-05
   15.1199999       2.16718163E-05
   15.2399998       2.21695154E-05
   15.3599997       2.26692173E-05
   15.4799995       2.31704980E-05
   15.6000004       2.36729193E-05
   15.7200003       2.41760263E-05
   15.8400002       2.46793443E-05
   15.9600000       2.51823767E-05
   16.0799999       2.56845960E-05
   16.2000008       2.61854457E-05
   16.3199997       2.66843381E-05
   16.4400005       2.71806439E-05
   16.5599995       2.76737082E-05
   16.6800003       2.81628581E-05
   16.7999992       2.86474205E-05
   16.9200001       2.91267334E-05
   17.0400009       2.96001417E-05
   17.1599998       3.00670017E-05
   17.2800007       3.05266731E-05
   17.3999996       3.09784918E-05
   17.5200005       3.14217432E-05
   17.6399994       3.18556886E-05
   17.7600002       3.22795167E-05
   17.8799992       3.26923728E-05
   18.0000000       3.30933872E-05
   18.1200008       3.34816687E-05
   18.2399998       3.38563259E-05
   18.3600006       3.42164931E-05
   18.4799995       3.45613116E-05
   18.6000004       3.48899375E-05
   18.7199993       3.52015195E-05
   18.8400002       3.54952026E-05
   18.9599991       3.57700992E-05
   19.0799999       3.60253216E-05
   19.2000008       3.62599494E-05
   19.3199997       3.64730549E-05
   19.4400005       3.66636887E-05
   19.5599995       3.68308902E-05
   19.6800003       3.69736772E-05
   19.7999992       3.70910529E-05
   19.9200001       3.71820024E-05
   20.0400009       3.72454961E-05
   20.1599998       3.72804898E-05
   20.2800007       3.72859322E-05
   20.3999996       3.72607865E-05
   20.5200005       3.72040049E-05
   20.6399994       3.71145543E-05
   20.7600002       3.69914051E-05
   20.8799992       3.68335277E-05
   21.0000000       3.66398817E-05
   21.1200008       3.64094085E-05
   21.2399998       3.61410421E-05
   21.3600006       3.58337056E-05
   21.4799995       3.54863041E-05
   21.6000004       3.50977352E-05
   21.7199993       3.46668967E-05
   21.8400002       3.41926716E-05
   21.9599991       3.36739395E-05
   22.0799999       3.31095907E-05
   22.2000008       3.24985194E-05
   22.3199997       3.18396487E-05
   22.4400005       3.11319236E-05
   22.5599995       3.03743182E-05
   22.6800003       2.95658265E-05
   22.7999992       2.87054427E-05
   22.9200001       2.77921572E-05
   23.0400009       2.68249296E-05
   23.1599998       2.58026848E-05
   23.2800007       2.47243224E-05
   23.3999996       2.35887146E-05
   23.5200005       2.23947300E-05
   23.6399994       2.11412353E-05
   23.7600002       1.98271191E-05
   23.8799992       1.84512919E-05
   24.0000000       1.70126968E-05
   24.1200008       1.55102935E-05
   24.2399998       1.39430695E-05
   24.3600006       1.23100299E-05
   24.4799995       1.06101952E-05
   24.6000004       8.84259043E-06
   24.7199993       7.00623696E-06
   24.8400002       5.10015207E-06
   24.9599991       3.12333600E-06
   25.0799999       1.07477410E-06
   25.2000008      -1.04655908E-06
   25.3199997      -3.24169423E-06
   25.4400005      -5.51165431E-06
   25.5599995      -7.85744578E-06
   25.6800003      -1.02800541E-05
   25.7999992      -1.27804451E-05
   25.9200001      -1.53595702E-05
   26.0400009      -1.80183615E-05
   26.1599998      -2.07577359E-05
   26.2800007      -2.35785938E-05
   26.3999996      -2.64818154E-05
   26.5200005      -2.94682595E-05
   26.6399994      -3.25387700E-05
   26.7600002      -3.56941673E-05
   26.8799992      -3.89352608E-05
   27.0000000      -4.22628618E-05
   27.1200008      -4.56777780E-05
   27.2399998      -4.91808278E-05
   27.3600006      -5.27728225E-05
   27.4799995      -5.64545553E-05
   27.6000004      -6.02268083E-05
   27.7199993      -6.40903236E-05
   27.8400002      -6.80458106E-05
   27.9599991      -7.20939061E-05
   28.0799999      -7.62352356E-05
   28.2000008      -8.04703741E-05
   28.3199997      -8.47999108E-05
   28.4400005      -8.92243697E-05
   28.5599995      -9.37443401E-05
   28.6800003      -9.83603677E-05
   28.7999992      -1.03073005E-04
   28.9200001      -1.07882770E-04
   29.0400009      -1.12790141E-04
   29.1599998      -1.17795556E-04
   29.2800007      -1.22899393E-04
   29.3999996      -1.28101979E-04
   29.5200005      -1.33403562E-04
   29.6399994      -1.38804389E-04
   29.7600002      -1.44304591E-04
   29.8799992      -1.49904328E-04
   30.0000000      -1.55603717E-04
   30.1200008      -1.61402801E-04
   30.2399998      -1.67301609E-04
   30.3600006      -1.73300170E-04
   30.4799995      -1.79398383E-04
   30.6000004      -1.85596175E-04
   30.7199993      -1.91893356E-04
   30.8400002      -1.98289737E-04
   30.9599991      -2.04785072E-04
   31.0799999      -2.11379011E-04
   31.2000008      -2.18071233E-04
   31.3199997      -2.24861287E-04
   31.4400005      -2.31748680E-04
   31.5599995      -2.38732871E-04
   31.6800003      -2.45813251E-04
   31.7999992      -2.52989063E-04
   31.9200001      -2.60259549E-04
   32.0400009      -2.67623778E-04
   32.1599998      -2.75080791E-04
   32.2799988      -2.82629480E-04
   32.4000015      -2.90268683E-04
   32.5200005      -2.97997234E-04
   32.6399994      -3.05813795E-04
   32.7599983      -3.13717115E-04
   32.8800011      -3.21705797E-04
   33.0000000      -3.29778355E-04
   33.1199989      -3.37933132E-04
   33.2400017      -3.46168468E-04
   33.3600006      -3.54482559E-04
   33.4799995      -3.62873427E-04
   33.5999985      -3.71339178E-04
   33.7200012      -3.79877689E-04
   33.8400002      -3.88486806E-04
   33.9599991      -3.97164200E-04
   34.0800018      -4.05907456E-04
   34.2000008      -4.14714013E-04
   34.3199997      -4.23581107E-04
   34.4399986      -4.32505971E-04
   34.5600014      -4.41485638E-04
   34.6800003      -4.50517167E-04
   34.7999992      -4.59597417E-04
   34.9199982      -4.68723127E-04
   35.0400009      -4.77891008E-04
   35.1599998      -4.87097655E-04
   35.2799988      -4.96339519E-04
   35.4000015      -5.05612988E-04
   35.5200005      -5.14914282E-04
   35.6399994      -5.24239556E-04
   35.7599983      -5.33584738E-04
   35.8800011      -5.42945694E-04
   36.0000000      -5.52318234E-04
   36.1199989      -5.61697758E-04
   36.2400017      -5.71079843E-04
   36.3600006      -5.80459600E-04
   36.4799995      -5.89832256E-04
   36.5999985      -5.99192805E-04
   36.7200012      -6.08536240E-04
   36.8400002      -6.17857440E-04
   36.9599991      -6.27151050E-04
   37.0800018      -6.36411773E-04
   37.2000008      -6.45634136E-04
   37.3199997      -6.54812611E-04
   37.4399986      -6.63941377E-04
   37.5600014      -6.73014496E-04
   37.6800003      -6.82026090E-04
   37.7999992      -6.90969930E-04
   37.9199982      -6.99839904E-04
   38.0400009      -7.08629726E-04
   38.1599998      -7.17333052E-04
   38.2799988      -7.25943479E-04
   38.4000015      -7.34454487E-04
   38.5200005      -7.42859324E-04
   38.6399994      -7.51151354E-04
   38.7599983      -7.59323535E-04
   38.8800011      -7.67369056E-04
   39.0000000      -7.75281049E-04
   39.1199989      -7.83052412E-04
   39.2400017      -7.90676160E-04
   39.3600006      -7.98145134E-04
   39.4799995      -8.05452291E-04
   39.5999985      -8.12590413E-04
   39.7200012      -8.19552457E-04
   39.8400002      -8.26331030E-04
   39.9599991      -8.32919031E-04
   40.0800018      -8.39309243E-04
   40.2000008      -8.45494389E-04
   40.3199997      -8.51467252E-04
   40.4399986      -8.57220497E-04
   40.5600014      -8.62746965E-04
   40.6800003      -8.68039380E-04
   40.7999992      -8.73090350E-04
   40.9199982      -8.77893006E-04
   41.0400009      -8.82440072E-04
   41.1599998      -8.86724738E-04
   41.2799988      -8.90740252E-04
   41.4000015      -8.94479919E-04
   41.5200005      -8.97937163E-04
   41.6399994      -9.01105581E-04
   41.7599983      -9.03978711E-04
   41.8800011      -9.06550151E-04
   42.0000000      -9.08813789E-04
   42.1199989      -9.10763629E-04
   42.2400017      -9.12393734E-04
   42.3600006      -9.13698517E-04
   42.4799995      -9.14672564E-04
   42.5999985      -9.15310753E-04
   42.7200012      -9.15607845E-04
   42.8400002      -9.15559125E-04
   42.9599991      -9.15160112E-04
   43.0800018      -9.14406381E-04
   43.2000008      -9.13293974E-04
   43.3199997      -9.11818992E-04
   43.4399986      -9.09978058E-04
   43.5600014      -9.07767855E-04
   43.6800003      -9.05185647E-04
   43.7999992      -9.02228698E-04
   43.9199982      -8.98894796E-04
   44.0400009      -8.95181962E-04
   44.1599998      -8.91088450E-04
   44.2799988      -8.86613037E-04
   44.4000015      -8.81754793E-04
   44.5200005      -8.76513019E-04
   44.6399994      -8.70887481E-04
   44.7599983      -8.64878355E-04
   44.8800011      -8.58486048E-04
   45.0000000      -8.51711724E-04
   45.1199989      -8.44556664E-04
   45.2400017      -8.37022613E-04
   45.3600006      -8.29111843E-04
   45.4799995      -8.20826914E-04
   45.5999985      -8.12170911E-04
   45.7200012      -8.03147326E-04
   45.8400002      -7.93759828E-04
   45.9599991      -7.84012722E-04
   46.0800018      -7.73910491E-04
   46.2000008      -7.63458142E-04
   46.3199997      -7.52661028E-04
   46.4399986      -7.41524971E-04
   46.5600014      -7.30056490E-04
   46.6800003      -7.18262221E-04
   46.7999992      -7.06149440E-04
   46.9199982      -6.93725771E-04
   47.0400009      -6.80999248E-04
   47.1599998      -6.67978253E-04
   47.2799988      -6.54671632E-04
   47.4000015      -6.41088525E-04
   47.5200005      -6.27238362E-04
   47.6399994      -6.13131037E-04
   47.7599983      -5.98776678E-04
   47.8800011      -5.84185822E-04
   48.0000000      -5.69369236E-04
   48.1199989      -5.54338389E-04
   48.2400017      -5.39104629E-04
   48.3600006      -5.23679832E-04
   48.4799995      -5.08076220E-04
   48.5999985      -4.92306135E-04
   48.7200012      -4.76382294E-04
   48.8400002      -4.60317620E-04
   48.9599991      -4.44125355E-04
   49.0800018      -4.27818741E-04
   49.2000008      -4.11411485E-04
   49.3199997      -3.94917297E-04
   49.4399986      -3.78350116E-04
   49.5600014      -3.61723913E-04
   49.6800003      -3.45052802E-04
   49.7999992      -3.28350929E-04
   49.9199982      -3.11632524E-04
   50.0400009      -2.94911792E-04
   50.1599998      -2.78203108E-04
   50.2799988      -2.61520763E-04
   50.4000015      -2.44879164E-04
   50.5200005      -2.28292745E-04
   50.6399994      -2.11775827E-04
   50.7599983      -1.95342713E-04
   50.8800011      -1.79007635E-04
   51.0000000      -1.62784723E-04
   51.1199989      -1.46687977E-04
   51.2400017      -1.30731307E-04
   51.3600006      -1.14928378E-04
   51.4799995      -9.92926143E-05
   51.5999985      -8.38371780E-05
   51.7200012      -6.85748964E-05
   51.8400002      -5.35182953E-05
   51.9599991      -3.86796273E-05
   52.0800018      -2.40708760E-05
   52.2000008      -9.70380734E-06
   52.3199997       4.41005386E-06
   52.4399986       1.82594395E-05
   52.5600014       3.18334278E-05
   52.6800003       4.51214764E-05
   52.7999992       5.81134955E-05
   52.9199982       7.07998770E-05
   53.0400009       8.31715079E-05
   53.1599998       9.52197370E-05
   53.2799988       1.06936357E-04
   53.4000015       1.18313612E-04
   53.5200005       1.29344218E-04
   53.6399994       1.40021337E-04
   53.7599983       1.50338703E-04
   53.8800011       1.60290554E-04
   54.0000000       1.69871593E-04
   54.1199989       1.79077048E-04
   54.2400017       1.87902551E-04
   54.3600006       1.96344292E-04
   54.4799995       2.04398952E-04
   54.5999985       2.12063751E-04
   54.7200012       2.19336478E-04
   54.8400002       2.26215532E-04
   54.9599991       2.32699895E-04
   55.0800018       2.38789071E-04
   55.2000008       2.44483148E-04
   55.3199997       2.49782577E-04
   55.4399986       2.54688377E-04
   55.5600014       2.59202003E-04
   55.6800003       2.63325404E-04
   55.7999992       2.67061114E-04
   55.9199982       2.70412187E-04
   56.0400009       2.73382320E-04
   56.1599998       2.75975588E-04
   56.2799988       2.78196647E-04
   56.4000015       2.80050474E-04
   56.5200005       2.81542452E-04
   56.6399994       2.82678287E-04
   56.7599983       2.83464120E-04
   56.8800011       2.83906353E-04
   57.0000000       2.84012029E-04
   57.1199989       2.83788482E-04
   57.2400017       2.83243542E-04
   57.3600006       2.82385445E-04
   57.4799995       2.81222776E-04
   57.5999985       2.79764325E-04
   57.7200012       2.78019172E-04
   57.8400002       2.75996543E-04
   57.9599991       2.73705868E-04
   58.0800018       2.71156896E-04
   58.2000008       2.68359465E-04
   58.3199997       2.65323877E-04
   58.4399986       2.62060552E-04
   58.5600014       2.58580025E-04
   58.6800003       2.54892948E-04
   58.7999992       2.51010089E-04
   58.9199982       2.46942102E-04
   59.0400009       2.42699694E-04
   59.1599998       2.38293651E-04
   59.2799988       2.33734827E-04
   59.4000015       2.29034238E-04
   59.5200005       2.24202944E-04
   59.6399994       2.19252019E-04
   59.7599983       2.14192507E-04
   59.8800011       2.09035265E-04
   60.0000000       2.03791031E-04
   60.1199989       1.98470298E-04
   60.2400017       1.93083470E-04
   60.3600006       1.87640850E-04
   60.4799995       1.82152711E-04
   60.5999985       1.76629197E-04
   60.7200012       1.71080319E-04
   60.8400002       1.65515899E-04
   60.9599991       1.59945514E-04
   61.0800018       1.54378431E-04
   61.2000008       1.48823630E-04
   61.3199997       1.43289872E-04
   61.4399986       1.37785682E-04
   61.5600014       1.32319372E-04
   61.6800003       1.26899045E-04
   61.7999992       1.21532532E-04
   61.9199982       1.16227326E-04
   62.0400009       1.10990615E-04
   62.1599998       1.05829211E-04
   62.2799988       1.00749639E-04
   62.4000015       9.57581069E-05
   62.5200005       9.08605216E-05
   62.6399994       8.60625005E-05
   62.7599983       8.13693550E-05
   62.8800011       7.67860547E-05
   63.0000000       7.23172197E-05
   63.1199989       6.79671139E-05
   63.2400017       6.37396442E-05
   63.3600006       5.96384052E-05
   63.4799995       5.56666710E-05
   63.5999985       5.18274173E-05
   63.7200012       4.81233037E-05
   63.8400002       4.45566620E-05
   63.9599991       4.11294823E-05
   64.0800018       3.78434233E-05
   64.1999969       3.46998313E-05
   64.3199997       3.16997684E-05
   64.4400024       2.88440169E-05
   64.5599976       2.61331006E-05
   64.6800003       2.35672742E-05
   64.8000031       2.11465103E-05
   64.9199982       1.88704962E-05
   65.0400009       1.67386261E-05
   65.1600037       1.47500195E-05
   65.2799988       1.29035425E-05
   65.4000015       1.11978170E-05
   65.5199966       9.63124694E-06
   65.6399994       8.20203422E-06
   65.7600021       6.90817888E-06
   65.8799973       5.74749401E-06
   66.0000000       4.71761678E-06
   66.1200027       3.81602104E-06
   66.2399979       3.04003720E-06
   66.3600006       2.38685516E-06
   66.4800034       1.85352508E-06
   66.5999985       1.43695377E-06
   66.7200012       1.13389547E-06
   66.8399963       9.40957136E-07
   66.9599991       8.54607094E-07
   67.0800018       8.71200143E-07
   67.1999969       9.87010480E-07
   67.3199997       1.19826041E-06
   67.4400024       1.50113840E-06
   67.5599976       1.89180821E-06
   67.6800003       2.36639903E-06
   67.8000031       2.92099321E-06
   67.9199982       3.55161706E-06
   68.0400009       4.25424469E-06
   68.1600037       5.02481362E-06
   68.2799988       5.85925090E-06
   68.4000015       6.75350202E-06
   68.5199966       7.70355837E-06
   68.6399994       8.70546046E-06
   68.7600021       9.75530656E-06
   68.8799973       1.08492350E-05
   69.0000000       1.19834203E-05
   69.1200027       1.31540610E-05
   69.2399979       1.43573952E-05
   69.3600006       1.55897087E-05
   69.4800034       1.68473616E-05
   69.5999985       1.81268006E-05
   69.7200012       1.94245586E-05
   69.8399963       2.07372632E-05
   69.9599991       2.20616112E-05
   70.0800018       2.33943720E-05
   70.1999969       2.47323751E-05
   70.3199997       2.60725446E-05
   70.4400024       2.74119157E-05
   70.5599976       2.87476705E-05
   70.6800003       3.00771590E-05
   70.8000031       3.13978780E-05
   70.9199982       3.27074340E-05
   71.0400009       3.40035185E-05
   71.1600037       3.52838542E-05
   71.2799988       3.65462038E-05
   71.4000015       3.77883698E-05
   71.5199966       3.90082714E-05
   71.6399994       4.02039841E-05
   71.7600021       4.13737907E-05
   71.8799973       4.25161597E-05
   72.0000000       4.36297232E-05
   72.1200027       4.47132225E-05
   72.2399979       4.57654314E-05
   72.3600006       4.67851241E-05
   72.4800034       4.77711255E-05
   72.5999985       4.87223188E-05
   72.7200012       4.96377397E-05