  -30.0000000       0.00000000    
  -29.8799992       0.00000000    
  -29.7600002       0.00000000    
  -29.6399994       0.00000000    
  -29.5200005       0.00000000    
  -29.3999996       0.00000000    
  -29.2800007       0.00000000    
  -29.1599998       0.00000000    
  -29.0400009       1.20604411E-37
  -28.9200001       9.96394417E-37
  -28.7999992       3.88520362E-36
  -28.6800003       1.45757310E-35
  -28.5599995       9.80002638E-35
  -28.4400005       6.67149890E-34
  -28.3199997       3.33326741E-33
  -28.2000008       1.21153207E-32
  -28.0799999       3.21292405E-32
  -27.9599991       5.77344109E-32
  -27.8400002       4.12669223E-32
  -27.7199993      -1.43945795E-31
  -27.6000004      -6.67861629E-31
  -27.4799995      -1.48156252E-30
  -27.3600006      -1.73643762E-30
  -27.2399998       7.75159954E-31
  -27.1200008       8.97306936E-30
  -27.0000000       2.28567620E-29
  -26.8799992       3.23827697E-29
  -26.7600002       1.11476692E-29
  -26.6399994      -7.74476074E-29
  -26.5200005      -2.46483090E-28
  -26.3999996      -4.21490346E-28
  -26.2800007      -3.79792518E-28
  -26.1599998       2.23235142E-28
  -26.0400009       1.63672499E-27
  -25.9200001       3.57428485E-27
  -25.7999992       4.72539816E-27
  -25.6800003       2.67211667E-27
  -25.5599995      -5.18118142E-27
  -25.4400005      -1.93181081E-26
  -25.3199997      -3.49796918E-26
  -25.2000008      -4.00161034E-26
  -25.0799999      -1.66055560E-26
  -24.9599991       5.05074388E-26
  -24.8400002       1.59038907E-25
  -24.7199993       2.71937019E-25
  -24.6000004       3.07994717E-25
  -24.4799995       1.54188078E-25
  -24.3600006      -2.87958932E-25
  -24.2399998      -1.01990160E-24
  -24.1200008      -1.84579943E-24
  -24.0000000      -2.30112659E-24
  -23.8799992      -1.68446928E-24
  -23.7600002       7.24224059E-25
  -23.6399994       5.21159498E-24
  -23.5200005       1.10033798E-23
  -23.3999996       1.56969073E-23
  -23.2800007       1.51872006E-23
  -23.1599998       4.61971698E-24
  -23.0400009      -1.92642121E-23
  -22.9200001      -5.45919830E-23
  -22.7999992      -9.07832174E-23
  -22.6800003      -1.07104945E-22
  -22.5599995      -7.60456422E-23
  -22.4400005       2.65021892E-23
  -22.3199997       2.04646839E-22
  -22.2000008       4.23784207E-22
  -22.0799999       5.98386767E-22
  -21.9599991       5.97718116E-22
  -21.8400002       2.79827517E-22
  -21.7199993      -4.42750139E-22
  -21.6000004      -1.51558906E-21
  -21.4799995      -2.66148492E-21
  -21.3600006      -3.35226777E-21
  -21.2399998      -2.88813221E-21
  -21.1200008      -6.26459461E-22
  -21.0000000       3.64391154E-21
  -20.8799992       9.26914280E-21
  -20.7600002       1.44255856E-20
  -20.6399994       1.62087140E-20
  -20.5200005       1.13645044E-20
  -20.3999996      -2.26508628E-21
  -20.2800007      -2.38671414E-20
  -20.1599998      -4.80898574E-20
  -20.0400009      -6.48560976E-20
  -19.9200001      -6.15661289E-20
  -19.7999992      -2.79907580E-20
  -19.6800003       3.71790285E-20
  -19.5599995       1.20708593E-19
  -19.4400005       1.93664113E-19
  -19.3199997       2.17722002E-19
  -19.2000008       1.59383771E-19
  -19.0799999       8.40836605E-21
  -18.9599991      -2.07294951E-19
  -18.8400002      -4.19672669E-19
  -18.7199993      -5.37823425E-19
  -18.6000004      -4.83104549E-19
  -18.4799995      -2.30234427E-19
  -18.3600006       1.65226561E-19
  -18.2399998       5.72293747E-19
  -18.1200008       8.30610310E-19
  -18.0000000       8.24525983E-19
  -17.8799992       5.52117365E-19
  -17.7600002       1.47596990E-19
  -17.6399994      -1.71246704E-19
  -17.5200005      -2.23796843E-19
  -17.3999996      -4.47717040E-21
  -17.2800007       2.43511917E-19
  -17.1599998       9.24136520E-20
  -17.0400009      -8.49064968E-19
  -16.9200001      -2.62717919E-18
  -16.7999992      -4.69808189E-18
  -16.6800003      -5.92309295E-18
  -16.5599995      -4.91536652E-18
  -16.4400005      -6.95927987E-19
  -16.3199997       6.56916154E-18
  -16.2000008       1.51077938E-17
  -16.0799999       2.16985423E-17
  -15.9600000       2.25894588E-17
  -15.8400002       1.49927512E-17
  -15.7200003      -1.36419371E-18
  -15.6000004      -2.33211679E-17
  -15.4799995      -4.45738747E-17
  -15.3599997      -5.73298170E-17
  -15.2399998      -5.49205741E-17
  -15.1199999      -3.44700984E-17
  -15.0000000       1.44391862E-18
  -14.8800001       4.49074700E-17
  -14.7600002       8.46707634E-17
  -14.6400003       1.09364163E-16
  -14.5200005       1.10744707E-16
  -14.3999996       8.57989583E-17
  -14.2799997       3.70979090E-17
  -14.1599998      -2.83347476E-17
  -14.0400000      -1.00675444E-16
  -13.9200001      -1.68399547E-16
  -13.8000002      -2.18385502E-16
  -13.6800003      -2.35689803E-16
  -13.5600004      -2.04590512E-16
  -13.4399996      -1.12535778E-16
  -13.3199997       4.26257883E-17
  -13.1999998       2.44046339E-16
  -13.0799999       4.50158836E-16
  -12.9600000       5.97056637E-16
  -12.8400002       6.12626743E-16
  -12.7200003       4.41756375E-16
  -12.6000004       7.59942078E-17
  -12.4799995      -4.24060428E-16
  -12.3599997      -9.26751453E-16
  -12.2399998      -1.25648762E-15
  -12.1199999      -1.24867321E-15
  -12.0000000      -8.18199205E-16
  -11.8800001      -1.65335901E-17
  -11.7600002       9.50453447E-16
  -11.6400003       1.76316377E-15
  -11.5200005       2.08698415E-15
  -11.3999996       1.70338442E-15
  -11.2799997       6.26651227E-16
  -11.1599998      -8.47079481E-16
  -11.0400000      -2.19704867E-15
  -10.9200001      -2.84447661E-15
  -10.8000002      -2.38531635E-15
  -10.6800003      -8.05942479E-16
  -10.5600004       1.41628049E-15
  -10.4399996       3.40201169E-15
  -10.3199997       4.16082743E-15
  -10.1999998       3.01161675E-15
  -10.0799999      -1.70483711E-17
  -9.96000004      -3.99049038E-15
  -9.84000015      -7.22416782E-15
  -9.72000027      -7.83113046E-15
  -9.60000038      -4.53901790E-15
  -9.47999954       2.50195999E-15
  -9.35999966       1.12840984E-14
  -9.23999977       1.81994244E-14
  -9.11999989       1.91107269E-14
  -9.00000000       1.10435402E-14
  -8.88000011      -6.02903991E-15
  -8.76000023      -2.80562943E-14
  -8.64000034      -4.71546833E-14
  -8.52000046      -5.36035009E-14
  -8.39999962      -3.93490850E-14
  -8.27999973      -2.05447100E-15
  -8.15999985       5.18211233E-14
  -8.03999996       1.06526936E-13
  -7.92000008       1.40181188E-13
  -7.80000019       1.31500984E-13
  -7.67999983       6.85276488E-14
  -7.55999994      -4.35297076E-14
  -7.44000006      -1.78741773E-13
  -7.32000017      -2.93920568E-13
  -7.19999981      -3.39839322E-13
  -7.07999992      -2.78110570E-13
  -6.96000004      -9.88101202E-14
  -6.84000015       1.67717524E-13
  -6.71999979       4.50966386E-13
  -6.59999990       6.55416151E-13
  -6.48000002       6.88907102E-13
  -6.36000013       4.96947481E-13
  -6.23999977       9.16190748E-14
  -6.11999989      -4.36939412E-13
  -6.00000000      -9.34782850E-13
  -5.88000011      -1.22476064E-12
  -5.76000023      -1.16443758E-12
  -5.63999987      -7.03940216E-13
  -5.51999998       7.73296900E-14
  -5.40000010       9.72769933E-13
  -5.28000021       1.69647814E-12
  -5.15999985       1.96870276E-12
  -5.03999996       1.61535574E-12
  -4.92000008       6.48607741E-13
  -4.80000019      -7.03609209E-13
  -4.67999983      -2.03876998E-12
  -4.55999994      -2.88932463E-12
  -4.44000006      -2.87370952E-12
  -4.32000017      -1.84279393E-12
  -4.19999981       2.99187656E-14
  -4.07999992       2.25425451E-12
  -3.96000004       4.13789315E-12
  -3.83999991       4.98614214E-12
  -3.72000003       4.33126712E-12
  -3.59999990       2.11843867E-12
  -3.48000002      -1.21888784E-12
  -3.35999990      -4.83196686E-12
  -3.24000001      -7.67052914E-12
  -3.11999989      -8.78235939E-12
  -3.00000000      -7.61042878E-12
  -2.88000011      -4.19289993E-12
  -2.75999999       8.03965347E-13
  -2.64000010       6.24004537E-12
  -2.51999998       1.08030043E-11
  -2.40000010       1.33678494E-11
  -2.27999997       1.33027851E-11
  -2.16000009       1.06245620E-11
  -2.03999996       5.95491581E-12
  -1.91999996       2.96392874E-13
  -1.79999995      -5.29199991E-12
  -1.67999995      -1.00037756E-11
  -1.55999994      -1.34690618E-11
  -1.44000006      -1.57511521E-11
  -1.32000005      -1.71651599E-11
  -1.20000005      -1.79999470E-11
  -1.08000004      -1.82674171E-11
 -0.959999979      -1.75987298E-11
 -0.839999974      -1.53524294E-11
 -0.720000029      -1.09127100E-11
 -0.600000024      -4.06838799E-12
 -0.479999989       4.68897360E-12
 -0.360000014       1.41013859E-11
 -0.239999995       2.23952575E-11
 -0.119999997       2.78102003E-11
  -1.11022302E-15   2.92504215E-11
  0.119999997       2.68305274E-11
  0.239999995       2.20957315E-11
  0.360000014       1.77933276E-11
  0.479999989       1.72293863E-11
  0.600000024       2.34069847E-11
  0.720000029       3.82454381E-11
  0.839999974       6.21744045E-11
  0.959999979       9.42726938E-11
   1.08000004       1.32915665E-10
   1.20000005       1.76682211E-10
   1.32000005       2.25137825E-10
   1.44000006       2.79123169E-10
   1.55999994       3.40348028E-10
   1.67999995       4.10368128E-10
   1.79999995       4.89310426E-10
   1.91999996       5.74884973E-10
   2.03999996       6.62197019E-10
   2.16000009       7.44630635E-10
   2.27999997       8.15683410E-10
   2.40000010       8.71226924E-10
   2.51999998       9.11415887E-10
   2.64000010       9.41480671E-10
   2.75999999       9.70954650E-10
   2.88000011       1.01140418E-09
   3.00000000       1.07329468E-09
   3.11999989       1.16299581E-09
   3.24000001       1.28097599E-09
   3.35999990       1.42188106E-09
   3.48000002       1.57656255E-09
   3.59999990       1.73541537E-09
   3.72000003       1.89187199E-09
   3.83999991       2.04479345E-09
   3.96000004       2.19884333E-09
   4.07999992       2.36266162E-09
   4.19999981       2.54546717E-09
   4.32000017       2.75334311E-09
   4.44000006       2.98663605E-09
   4.55999994       3.23952953E-09
   4.67999983       3.50207863E-09
   4.80000019       3.76404818E-09
   4.92000008       4.01919431E-09
   5.03999996       4.26838698E-09
   5.15999985       4.52034676E-09
   5.28000021       4.78961582E-09
   5.40000010       5.09238296E-09
   5.51999998       5.44161338E-09
   5.63999987       5.84320459E-09
   5.76000023       6.29456087E-09
   5.88000011       6.78610768E-09
   6.00000000       7.30521377E-09
   6.11999989       7.84110998E-09
   6.23999977       8.38904857E-09
   6.36000013       8.95225138E-09
   6.48000002       9.54102575E-09
   6.59999990       1.01694750E-08
   6.71999979       1.08511138E-08
   6.84000015       1.15950565E-08
   6.96000004       1.24041923E-08
   7.07999992       1.32759661E-08
   7.19999981       1.42053551E-08
   7.32000017       1.51888120E-08
   7.44000006       1.62275828E-08
   7.55999994       1.73290449E-08
   7.67999983       1.85055065E-08
   7.80000019       1.97709191E-08
   7.92000008       2.11367137E-08
   8.03999996       2.26083863E-08
   8.15999985       2.41841835E-08
   8.27999973       2.58564654E-08
   8.39999962       2.76153393E-08
   8.52000046       2.94532807E-08
   8.64000034       3.13691650E-08
   8.76000023       3.33702381E-08
   8.88000011       3.54712988E-08
   9.00000000       3.76914393E-08
   9.11999989       4.00494500E-08
   9.23999977       4.25595026E-08
   9.35999966       4.52285853E-08
   9.47999954       4.80566484E-08
   9.60000038       5.10392049E-08
   9.72000027       5.41715579E-08
   9.84000015       5.74531107E-08
   9.96000004       6.08903008E-08
   10.0799999       6.44971649E-08
   10.1999998       6.82934527E-08
   10.3199997       7.23010416E-08
   10.4399996       7.65399264E-08
   10.5600004       8.10251208E-08
   10.6800003       8.57654854E-08
   10.8000002       9.07647646E-08
   10.9200001       9.60241024E-08
   11.0400000       1.01545318E-07
   11.1599998       1.07333420E-07
   11.2799997       1.13397761E-07
   11.3999996       1.19751462E-07
   11.5200005       1.26409574E-07
   11.6400003       1.33386564E-07
   11.7600002       1.40694553E-07
   11.8800001       1.48342579E-07
   12.0000000       1.56337308E-07
   12.1199999       1.64685062E-07
   12.2399998       1.73394142E-07
   12.3599997       1.82476825E-07
   12.4799995       1.91950463E-07
   12.6000004       2.01837210E-07
   12.7200003       2.12162632E-07
   12.8400002       2.22953545E-07
   12.9600000       2.34235841E-07
   13.0799999       2.46032357E-07
   13.1999998       2.58361752E-07
   13.3199997       2.71237582E-07
   13.4399996       2.84668488E-07
   13.5600004       2.98658790E-07
   13.6800003       3.13209711E-07
   13.8000002       3.28321249E-07
   13.9200001       3.43994344E-07
   14.0400000       3.60233400E-07
   14.1599998       3.77048707E-07
   14.2799997       3.94457857E-07
   14.3999996       4.12485974E-07
   14.5200005       4.31164210E-07
   14.6400003       4.50526841E-07
   14.7600002       4.70607006E-07
   14.8800001       4.91432729E-07
   15.0000000       5.13023679E-07
   15.1199999       5.35390086E-07
   15.2399998       5.58533429E-07
   15.3599997       5.82449672E-07
   15.4799995       6.07133018E-07
   15.6000004       6.32580623E-07
   15.7200003       6.58795159E-07
   15.8400002       6.85785949E-07
   15.9600000       7.13568227E-07
   16.0799999       7.42159102E-07
   16.2000008       7.71574378E-07
   16.3199997       8.01824513E-07
   16.4400005       8.32911951E-07
   16.5599995       8.64831634E-07
   16.6800003       8.97572818E-07
   16.7999992       9.31123282E-07
   16.9200001       9.65474555E-07
   17.0400009       1.00062562E-06
   17.1599998       1.03658533E-06
   17.2800007       1.07337144E-06
   17.3999996       1.11100576E-06
   17.5200005       1.14950842E-06
   17.6399994       1.18888943E-06
   17.7600002       1.22914241E-06
   17.8799992       1.27024236E-06
   18.0000000       1.31214642E-06
   18.1200008       1.35479991E-06
   18.2399998       1.39814483E-06
   18.3600006       1.44212845E-06
   18.4799995       1.48670949E-06
   18.6000004       1.53185863E-06
   18.7199993       1.57755358E-06
   18.8400002       1.62377114E-06
   18.9599991       1.67047926E-06
   19.0799999       1.71762963E-06
   19.2000008       1.76515641E-06
   19.3199997       1.81298185E-06
   19.4400005       1.86102432E-06
   19.5599995       1.90921014E-06
   19.6800003       1.95747998E-06
   19.7999992       2.00579007E-06
   19.9200001       2.05410606E-06
   20.0400009       2.10239091E-06
   20.1599998       2.15059299E-06
   20.2800007       2.19863500E-06
   20.3999996       2.24641076E-06
   20.5200005       2.29378975E-06
   20.6399994       2.34063123E-06
   20.7600002       2.38679650E-06
   20.8799992       2.43216209E-06
   21.0000000       2.47662251E-06
   21.1200008       2.52008658E-06
   21.2399998       2.56246653E-06
   21.3600006       2.60366096E-06
   21.4799995       2.64354139E-06
   21.6000004       2.68194708E-06
   21.7199993       2.71868453E-06
   21.8400002       2.75353955E-06
   21.9599991       2.78628931E-06
   22.0799999       2.81671782E-06
   22.2000008       2.84462294E-06
   22.3199997       2.86981958E-06
   22.4400005       2.89213358E-06
   22.5599995       2.91139304E-06
   22.6800003       2.92741788E-06
   22.7999992       2.94001234E-06
   22.9200001       2.94896290E-06
   23.0400009       2.95403765E-06
   23.1599998       2.95499035E-06
   23.2800007       2.95156383E-06
   23.3999996       2.94349093E-06
   23.5200005       2.93049447E-06
   23.6399994       2.91228366E-06
   23.7600002       2.88855449E-06
   23.8799992       2.85898864E-06
   24.0000000       2.82325846E-06
   24.1200008       2.78103403E-06
   24.2399998       2.73198884E-06
   24.3600006       2.67580481E-06
   24.4799995       2.61216996E-06
   24.6000004       2.54077236E-06
   24.7199993       2.46128820E-06
   24.8400002       2.37337576E-06
   24.9599991       2.27666851E-06
   25.0799999       2.17077491E-06
   25.2000008       2.05528499E-06
   25.3199997       1.92977745E-06
   25.4400005       1.79382982E-06
   25.5599995       1.64702317E-06
   25.6800003       1.48894514E-06
   25.7999992       1.31918546E-06
   25.9200001       1.13733097E-06
   26.0400009       9.42958650E-07
   26.1599998       7.35629840E-07
   26.2800007       5.14889223E-07
   26.3999996       2.80263890E-07
   26.5200005       3.12660049E-08
   26.6399994      -2.32602403E-07
   26.7600002      -5.11845542E-07
   26.8799992      -8.06967932E-07
   27.0000000      -1.11847010E-06
   27.1200008      -1.44684554E-06
   27.2399998      -1.79257825E-06
   27.3600006      -2.15614432E-06
   27.4799995      -2.53801841E-06
   27.6000004      -2.93868015E-06
   27.7199993      -3.35862501E-06
   27.8400002      -3.79837320E-06
   27.9599991      -4.25847247E-06
   28.0799999      -4.73949694E-06
   28.2000008      -5.24203824E-06
   28.3199997      -5.76669800E-06
   28.4400005      -6.31407556E-06
   28.5599995      -6.88476166E-06
   28.6800003      -7.47933609E-06
   28.7999992      -8.09836729E-06
   28.9200001      -8.74242141E-06
   29.0400009      -9.41206326E-06
   29.1599998      -1.01078631E-05
   29.2800007      -1.08304012E-05
   29.3999996      -1.15802586E-05
   29.5200005      -1.23580276E-05
   29.6399994      -1.31642973E-05
   29.7600002      -1.39996619E-05
   29.8799992      -1.48647187E-05
   30.0000000      -1.57600716E-05
   30.1200008      -1.66863319E-05
   30.2399998      -1.76441154E-05
   30.3600006      -1.86340349E-05
   30.4799995      -1.96566907E-05
   30.6000004      -2.07126577E-05
   30.7199993      -2.18024779E-05
   30.8400002      -2.29266498E-05
   30.9599991      -2.40856352E-05
   31.0799999      -2.52798636E-05
   31.2000008      -2.65097497E-05
   31.3199997      -2.77757154E-05
   31.4400005      -2.90782118E-05
   31.5599995      -3.04177192E-05
   31.6800003      -3.17947561E-05
   31.7999992      -3.32098498E-05
   31.9200001      -3.46635388E-05
   32.0400009      -3.61563252E-05
   32.1599998      -3.76886637E-05
   32.2799988      -3.92609509E-05
   32.4000015      -4.08735141E-05
   32.5200005      -4.25266298E-05
   32.6399994      -4.42205383E-05
   32.7599983      -4.59554649E-05
   32.8800011      -4.77316462E-05
   33.0000000      -4.95493259E-05
   33.1199989      -5.14087842E-05
   33.2400017      -5.33102975E-05
   33.3600006      -5.52541278E-05
   33.4799995      -5.72405224E-05
   33.5999985      -5.92696888E-05
   33.7200012      -6.13417433E-05
   33.8400002      -6.34567550E-05
   33.9599991      -6.56147240E-05
   34.0800018      -6.78155993E-05
   34.2000008      -7.00592791E-05
   34.3199997      -7.23456615E-05
   34.4399986      -7.46746155E-05
   34.5600014      -7.70459737E-05
   34.6800003      -7.94595835E-05
   34.7999992      -8.19152337E-05
   34.9199982      -8.44126553E-05
   35.0400009      -8.69515570E-05
   35.1599998      -8.95315607E-05
   35.2799988      -9.21522296E-05
   35.4000015      -9.48130546E-05
   35.5200005      -9.75134826E-05
   35.6399994      -1.00252910E-04
   35.7599983      -1.03030659E-04
   35.8800011      -1.05846033E-04
   36.0000000      -1.08698252E-04
   36.1199989      -1.11586494E-04
   36.2400017      -1.14509909E-04
   36.3600006      -1.17467534E-04
   36.4799995      -1.20458404E-04
   36.5999985      -1.23481426E-04
   36.7200012      -1.26535480E-04
   36.8400002      -1.29619337E-04
   36.9599991      -1.32731773E-04
   37.0800018      -1.35871436E-04
   37.2000008      -1.39036973E-04
   37.3199997      -1.42226971E-04
   37.4399986      -1.45439932E-04
   37.5600014      -1.48674342E-04
   37.6800003      -1.51928558E-04
   37.7999992      -1.55200905E-04
   37.9199982      -1.58489551E-04
   38.0400009      -1.61792632E-04
   38.1599998      -1.65108155E-04
   38.2799988      -1.68434097E-04
   38.4000015      -1.71768334E-04
   38.5200005      -1.75108697E-04
   38.6399994      -1.78453003E-04
   38.7599983      -1.81798925E-04
   38.8800011      -1.85144148E-04
   39.0000000      -1.88486185E-04
   39.1199989      -1.91822473E-04
   39.2400017      -1.95150409E-04
   39.3600006      -1.98467242E-04
   39.4799995      -2.01770163E-04
   39.5999985      -2.05056349E-04
   39.7200012      -2.08322876E-04
   39.8400002      -2.11566803E-04
   39.9599991      -2.14785134E-04
   40.0800018      -2.17974797E-04
   40.2000008      -2.21132694E-04
   40.3199997      -2.24255637E-04
   40.4399986      -2.27340381E-04
   40.5600014      -2.30383594E-04
   40.6800003      -2.33381885E-04
   40.7999992      -2.36331791E-04
   40.9199982      -2.39229834E-04
   41.0400009      -2.42072463E-04
   41.1599998      -2.44856084E-04
   41.2799988      -2.47577031E-04
   41.4000015      -2.50231707E-04
   41.5200005      -2.52816302E-04
   41.6399994      -2.55327090E-04
   41.7599983      -2.57760228E-04
   41.8800011      -2.60111847E-04
   42.0000000      -2.62377987E-04
   42.1199989      -2.64554692E-04
   42.2400017      -2.66638031E-04
   42.3600006      -2.68623990E-04
   42.4799995      -2.70508608E-04
   42.5999985      -2.72287900E-04
   42.7200012      -2.73957907E-04
   42.8400002      -2.75514554E-04
   42.9599991      -2.76953855E-04
   43.0800018      -2.78271851E-04
   43.2000008      -2.79464439E-04
   43.3199997      -2.80527660E-04
   43.4399986      -2.81457527E-04
   43.5600014      -2.82250054E-04
   43.6800003      -2.82901368E-04
   43.7999992      -2.83407542E-04
   43.9199982      -2.83764646E-04
   44.0400009      -2.83968751E-04
   44.1599998      -2.84016074E-04
   44.2799988      -2.83902744E-04
   44.4000015      -2.83625035E-04
   44.5200005      -2.83179339E-04
   44.6399994      -2.82561989E-04
   44.7599983      -2.81769608E-04
   44.8800011      -2.80798675E-04
   45.0000000      -2.79645872E-04
   45.1199989      -2.78307823E-04
   45.2400017      -2.76781357E-04
   45.3600006      -2.75063328E-04
   45.4799995      -2.73150683E-04
   45.5999985      -2.71040539E-04
   45.7200012      -2.68730189E-04
   45.8400002      -2.66216986E-04
   45.9599991      -2.63498398E-04
   46.0800018      -2.60571949E-04
   46.2000008      -2.57435429E-04
   46.3199997      -2.54086539E-04
   46.4399986      -2.50523299E-04
   46.5600014      -2.46743788E-04
   46.6800003      -2.42746246E-04
   46.7999992      -2.38529130E-04
   46.9199982      -2.34091101E-04
   47.0400009      -2.29430967E-04
   47.1599998      -2.24547737E-04
   47.2799988      -2.19440539E-04
   47.4000015      -2.14108702E-04
   47.5200005      -2.08551719E-04
   47.6399994      -2.02769239E-04
   47.7599983      -1.96761132E-04
   47.8800011      -1.90527440E-04
   48.0000000      -1.84068398E-04
   48.1199989      -1.77384529E-04
   48.2400017      -1.70476502E-04
   48.3600006      -1.63345234E-04
   48.4799995      -1.55991904E-04
   48.5999985      -1.48417894E-04
   48.7200012      -1.40624878E-04
   48.8400002      -1.32614761E-04
   48.9599991      -1.24389699E-04
   49.0800018      -1.15952003E-04
   49.2000008      -1.07304288E-04
   49.3199997      -9.84493454E-05
   49.4399986      -8.93901888E-05
   49.5600014      -8.01300994E-05
   49.6800003      -7.06725550E-05
   49.7999992      -6.10213247E-05
   49.9199982      -5.11804064E-05
   50.0400009      -4.11540714E-05
   50.1599998      -3.09468596E-05
   50.2799988      -2.05635715E-05
   50.4000015      -1.00092320E-05
   50.5200005       7.10863844E-07
   50.6399994       1.15911853E-05
   50.7599983       2.26259617E-05
   50.8800011       3.38091741E-05
   51.0000000       4.51345622E-05
   51.1199989       5.65956398E-05
   51.2400017       6.81856691E-05
   51.3600006       7.98976762E-05
   51.4799995       9.17244324E-05
   51.5999985       1.03658494E-04
   51.7200012       1.15692237E-04
   51.8400002       1.27817810E-04
   51.9599991       1.40027201E-04
   52.0800018       1.52312146E-04
   52.2000008       1.64664234E-04
   52.3199997       1.77074820E-04
   52.4399986       1.89535072E-04
   52.5600014       2.02035968E-04
   52.6800003       2.14568296E-04
   52.7999992       2.27122699E-04
   52.9199982       2.39689703E-04
   53.0400009       2.52259691E-04
   53.1599998       2.64822826E-04
   53.2799988       2.77369225E-04
   53.4000015       2.89888820E-04
   53.5200005       3.02371423E-04
   53.6399994       3.14806704E-04
   53.7599983       3.27184243E-04
   53.8800011       3.39493563E-04
   54.0000000       3.51724186E-04
   54.1199989       3.63865634E-04
   54.2400017       3.75907315E-04
   54.3600006       3.87838722E-04
   54.4799995       3.99649289E-04
   54.5999985       4.11328278E-04
   54.7200012       4.22865181E-04
   54.8400002       4.34249319E-04
   54.9599991       4.45469981E-04
   55.0800018       4.56516602E-04
   55.2000008       4.67378704E-04
   55.3199997       4.78046015E-04
   55.4399986       4.88508202E-04
   55.5600014       4.98755253E-04
   55.6800003       5.08777099E-04
   55.7999992       5.18563844E-04
   55.9199982       5.28105884E-04
   56.0400009       5.37393498E-04
   56.1599998       5.46417257E-04
   56.2799988       5.55168081E-04
   56.4000015       5.63636771E-04
   56.5200005       5.71814657E-04
   56.6399994       5.79693296E-04
   56.7599983       5.87264367E-04
   56.8800011       5.94519777E-04
   57.0000000       6.01451844E-04
   57.1199989       6.08053058E-04
   57.2400017       6.14316144E-04
   57.3600006       6.20234234E-04
   57.4799995       6.25800982E-04
   57.5999985       6.31009985E-04
   57.7200012       6.35855773E-04
   57.8400002       6.40332990E-04
   57.9599991       6.44436514E-04
   58.0800018       6.48161746E-04
   58.2000008       6.51504495E-04
   58.3199997       6.54460746E-04
   58.4399986       6.57027122E-04
   58.5600014       6.59200596E-04
   58.6800003       6.60978549E-04
   58.7999992       6.62358885E-04
   58.9199982       6.63340150E-04
   59.0400009       6.63921004E-04
   59.1599998       6.64100808E-04
   59.2799988       6.63879153E-04
   59.4000015       6.63256156E-04
   59.5200005       6.62232342E-04
   59.6399994       6.60808932E-04
   59.7599983       6.58987439E-04
   59.8800011       6.56770018E-04
   60.0000000       6.54159288E-04
   60.1199989       6.51158392E-04
   60.2400017       6.47770998E-04
   60.3600006       6.44000887E-04
   60.4799995       6.39852660E-04
   60.5999985       6.35331147E-04
   60.7200012       6.30441704E-04
   60.8400002       6.25190034E-04
   60.9599991       6.19582541E-04
   61.0800018       6.13625743E-04
   61.2000008       6.07327092E-04
   61.3199997       6.00694155E-04
   61.4399986       5.93735022E-04
   61.5600014       5.86458191E-04
   61.6800003       5.78872277E-04
   61.7999992       5.70986536E-04
   61.9199982       5.62810223E-04
   62.0400009       5.54353290E-04
   62.1599998       5.45625750E-04
   62.2799988       5.36638370E-04
   62.4000015       5.27401979E-04
   62.5200005       5.17927867E-04
   62.6399994       5.08227502E-04
   62.7599983       4.98312758E-04
   62.8800011       4.88195510E-04
   63.0000000       4.77887923E-04
   63.1199989       4.67402366E-04
   63.2400017       4.56751237E-04
   63.3600006       4.45947371E-04
   63.4799995       4.35003574E-04
   63.5999985       4.23932826E-04
   63.7200012       4.12748283E-04
   63.8400002       4.01463127E-04
   63.9599991       3.90090601E-04
   64.0800018       3.78644007E-04
   64.1999969       3.67136643E-04
   64.3199997       3.55581898E-04
   64.4400024       3.43993044E-04
   64.5599976       3.32383468E-04
   64.6800003       3.20766383E-04
   64.8000031       3.09154944E-04
   64.9199982       2.97562161E-04
   65.0400009       2.86000897E-04
   65.1600037       2.74483813E-04
   65.2799988       2.63023394E-04
   65.4000015       2.51632009E-04
   65.5199966       2.40321824E-04
   65.6399994       2.29104917E-04
   65.7600021       2.17993074E-04
   65.8799973       2.06997851E-04
   66.0000000       1.96130553E-04
   66.1200027       1.85402037E-04
   66.2399979       1.74822882E-04
   66.3600006       1.64403260E-04
   66.4800034       1.54152993E-04
   66.5999985       1.44081627E-04
   66.7200012       1.34198330E-04
   66.8399963       1.24512007E-04
   66.9599991       1.15031195E-04
   67.0800018       1.05763997E-04
   67.1999969       9.67180531E-05
   67.3199997       8.79005893E-05
   67.4400024       7.93182699E-05
   67.5599976       7.09773594E-05
   67.6800003       6.28836569E-05
   67.8000031       5.50425830E-05
   67.9199982       4.74591179E-05
   68.0400009       4.01378529E-05
   68.1600037       3.30828989E-05
   68.2799988       2.62978829E-05
   68.4000015       1.97859645E-05
   68.5199966       1.35497685E-05
   68.6399994       7.59142449E-06
   68.7600021       1.91259892E-06
   68.8799973      -3.48546723E-06
   69.0000000      -8.60196724E-06
   69.1200027      -1.34365027E-05
   69.2399979      -1.79891231E-05
   69.3600006      -2.22603285E-05
   69.4800034      -2.62510894E-05
   69.5999985      -2.99628537E-05
   69.7200012      -3.33975258E-05
   69.8399963      -3.65574488E-05
   69.9599991      -3.94453600E-05
   70.0800018      -4.20643482E-05
   70.1999969      -4.44178404E-05
   70.3199997      -4.65095873E-05
   70.4400024      -4.83436670E-05
   70.5599976      -4.99244998E-05
   70.6800003      -5.12568658E-05
   70.8000031      -5.23458912E-05
   70.9199982      -5.31970545E-05
   71.0400009      -5.38161366E-05
   71.1600037      -5.42091984E-05
   71.2799988      -5.43825554E-05
   71.4000015      -5.43427486E-05
   71.5199966      -5.40965302E-05
   71.6399994      -5.36508742E-05
   71.7600021      -5.30129473E-05
   71.8799973      -5.21900911E-05
   72.0000000      -5.11898143E-05
   72.1200027      -5.00197348E-05
   72.2399979      -4.86875651E-05
   72.3600006      -4.72011016E-05
   72.4800034      -4.55681839E-05
   72.5999985      -4.37967537E-05
   72.7200012      -4.18948257E-05