  -30.0000000       0.00000000    
  -29.8799992       0.00000000    
  -29.7600002       0.00000000    
  -29.6399994       0.00000000    
  -29.5200005       0.00000000    
  -29.3999996       0.00000000    
  -29.2800007       0.00000000    
  -29.1599998       3.39635937E-24
  -29.0400009       3.50108271E-23
  -28.9200001       1.78508923E-22
  -28.7999992       5.85714657E-22
  -28.6800003       1.33165537E-21
  -28.5599995       2.00984250E-21
  -28.4400005       1.21439151E-21
  -28.3199997      -3.60081939E-21
  -28.2000008      -1.55093295E-20
  -28.0799999      -3.73995691E-20
  -27.9599991      -7.30241507E-20
  -27.8400002      -1.30543033E-19
  -27.7199993      -2.23280217E-19
  -27.6000004      -3.53371739E-19
  -27.4799995      -4.62070225E-19
  -27.3600006      -3.51215486E-19
  -27.2399998       3.69410822E-19
  -27.1200008       2.19637442E-18
  -27.0000000       5.38962184E-18
  -26.8799992       9.36890487E-18
  -26.7600002       1.21025374E-17
  -26.6399994       1.00347720E-17
  -26.5200005      -8.11485481E-19
  -26.3999996      -2.23030111E-17
  -26.2800007      -5.09215760E-17
  -26.1599998      -7.56005625E-17
  -26.0400009      -7.91537135E-17
  -25.9200001      -4.49621831E-17
  -25.7999992       3.20642767E-17
  -25.6800003       1.34974118E-16
  -25.5599995       2.22203185E-16
  -25.4400005       2.39636182E-16
  -25.3199997       1.48001961E-16
  -25.2000008      -4.37390178E-17
  -25.0799999      -2.57888525E-16
  -24.9599991      -3.61563107E-16
  -24.8400002      -2.25090959E-16
  -24.7199993       1.87080448E-16
  -24.6000004       7.33051482E-16
  -24.4799995       1.07524332E-15
  -24.3600006       7.76130202E-16
  -24.2399998      -4.85603724E-16
  -24.1200008      -2.63953635E-15
  -24.0000000      -5.01553746E-15
  -23.8799992      -6.35711483E-15
  -23.7600002      -5.16548897E-15
  -23.6399994      -3.60799137E-16
  -23.5200005       7.92454549E-15
  -23.3999996       1.77579034E-14
  -23.2800007       2.54110816E-14
  -23.1599998       2.62259239E-14
  -23.0400009       1.63121419E-14
  -22.9200001      -5.35360483E-15
  -22.7999992      -3.52175090E-14
  -22.6800003      -6.47501597E-14
  -22.5599995      -8.20454951E-14
  -22.4400005      -7.54707982E-14
  -22.3199997      -3.85413476E-14
  -22.2000008       2.56250150E-14
  -22.0799999       1.02290701E-13
  -21.9599991       1.67152262E-13
  -21.8400002       1.92891127E-13
  -21.7199993       1.58889178E-13
  -21.6000004       6.10737792E-14
  -21.4799995      -8.20436113E-14
  -21.3600006      -2.30561962E-13
  -21.2399998      -3.32975889E-13
  -21.1200008      -3.42768294E-13
  -21.0000000      -2.36879608E-13
  -20.8799992      -2.92860218E-14
  -20.7600002       2.26571556E-13
  -20.6399994       4.49638726E-13
  -20.5200005       5.55552512E-13
  -20.3999996       4.86459018E-13
  -20.2800007       2.36159237E-13
  -20.1599998      -1.39403354E-13
  -20.0400009      -5.32255501E-13
  -19.9200001      -8.12233419E-13
  -19.7999992      -8.68389507E-13
  -19.6800003      -6.48760559E-13
  -19.5599995      -1.84580880E-13
  -19.4400005       4.10760835E-13
  -19.3199997       9.69784040E-13
  -19.2000008       1.31875272E-12
  -19.0799999       1.33107197E-12
  -18.9599991       9.69554298E-13
  -18.8400002       3.03781495E-13
  -18.7199993      -5.03858294E-13
  -18.6000004      -1.24045229E-12
  -18.4799995      -1.70161812E-12
  -18.3600006      -1.75064412E-12
  -18.2399998      -1.36065627E-12
  -18.1200008      -6.27110668E-13
  -18.0000000       2.54249475E-13
  -17.8799992       1.03953001E-12
  -17.7600002       1.50594533E-12
  -17.6399994       1.51958383E-12
  -17.5200005       1.08186940E-12
  -17.3999996       3.38974075E-13
  -17.2800007      -4.52591252E-13
  -17.1599998      -9.98777558E-13
  -17.0400009      -1.06133873E-12
  -16.9200001      -5.44983655E-13
  -16.7999992       4.50277375E-13
  -16.6800003       1.63324107E-12
  -16.5599995       2.58870052E-12
  -16.4400005       2.89501474E-12
  -16.3199997       2.26148549E-12
  -16.2000008       6.44691332E-13
  -16.0799999      -1.69553965E-12
  -15.9600000      -4.22572697E-12
  -15.8400002      -6.25572424E-12
  -15.7200003      -7.11871794E-12
  -15.6000004      -6.36850989E-12
  -15.4799995      -3.93847455E-12
  -15.3599997      -2.11736444E-13
  -15.2399998       4.02800579E-12
  -15.1199999       7.76521035E-12
  -15.0000000       1.00072589E-11
  -14.8800001       1.00633070E-11
  -14.7600002       7.77049518E-12
  -14.6400003       3.59570555E-12
  -14.5200005      -1.43243826E-12
  -14.3999996      -5.96274115E-12
  -14.2799997      -8.68191283E-12
  -14.1599998      -8.70287262E-12
  -14.0400000      -5.86670382E-12
  -13.9200001      -8.57193060E-13
  -13.8000002       4.92542769E-12
  -13.6800003       9.71389375E-12
  -13.5600004       1.18562755E-11
  -13.4399996       1.02921968E-11
  -13.3199997       4.87823887E-12
  -13.1999998      -3.53886343E-12
  -13.0799999      -1.33231438E-11
  -12.9600000      -2.24575671E-11
  -12.8400002      -2.90269024E-11
  -12.7200003      -3.16247202E-11
  -12.6000004      -2.95705266E-11
  -12.4799995      -2.28997481E-11
  -12.3599997      -1.21761837E-11
  -12.2399998       1.76100779E-12
  -12.1199999       1.79895317E-11
  -12.0000000       3.55479049E-11
  -11.8800001       5.33188146E-11
  -11.7600002       6.98200178E-11
  -11.6400003       8.30247399E-11
  -11.5200005       9.03396316E-11
  -11.3999996       8.88246837E-11
  -11.2799997       7.56616922E-11
  -11.1599998       4.87934658E-11
  -11.0400000       7.59205719E-12
  -10.9200001      -4.66093240E-11
  -10.8000002      -1.10263729E-10
  -10.6800003      -1.77718687E-10
  -10.5600004      -2.41680426E-10
  -10.4399996      -2.93942509E-10
  -10.3199997      -3.26217720E-10
  -10.1999998      -3.30883099E-10
  -10.0799999      -3.01470821E-10
  -9.96000004      -2.32813574E-10
  -9.84000015      -1.20869439E-10
  -9.72000027       3.76274324E-11
  -9.60000038       2.45458487E-10
  -9.47999954       5.04916720E-10
  -9.35999966       8.17359291E-10
  -9.23999977       1.18234544E-09
  -9.11999989       1.59658853E-09
  -9.00000000       2.05310768E-09
  -8.88000011       2.54099053E-09
  -8.76000023       3.04604852E-09
  -8.64000034       3.55238949E-09
  -8.52000046       4.04460776E-09
  -8.39999962       4.51006787E-09
  -8.27999973       4.94067409E-09
  -8.15999985       5.33366906E-09
  -8.03999996       5.69132874E-09
  -7.92000008       6.01977579E-09
  -7.80000019       6.32742303E-09
  -7.67999983       6.62362654E-09
  -7.55999994       6.91796531E-09
  -7.44000006       7.22023774E-09
  -7.32000017       7.54091811E-09
  -7.19999981       7.89159493E-09
  -7.07999992       8.28493274E-09
  -6.96000004       8.73392114E-09
  -6.84000015       9.25053545E-09
  -6.71999979       9.84424542E-09
  -6.59999990       1.05208953E-08
  -6.48000002       1.12824088E-08
  -6.36000013       1.21273960E-08
  -6.23999977       1.30524098E-08
  -6.11999989       1.40533034E-08
  -6.00000000       1.51261563E-08
  -5.88000011       1.62674390E-08
  -5.76000023       1.74734591E-08
  -5.63999987       1.87395877E-08
  -5.51999998       2.00598596E-08
  -5.40000010       2.14275584E-08
  -5.28000021       2.28370070E-08
  -5.15999985       2.42863010E-08
  -5.03999996       2.57802650E-08
  -4.92000008       2.73326801E-08
  -4.80000019       2.89668929E-08
  -4.67999983       3.07143786E-08
  -4.55999994       3.26113607E-08
  -4.44000006       3.46942777E-08
  -4.32000017       3.69952957E-08
  -4.19999981       3.95391062E-08
  -4.07999992       4.23419131E-08
  -3.96000004       4.54128930E-08
  -3.83999991       4.87575882E-08
  -3.72000003       5.23820596E-08
  -3.59999990       5.62963436E-08
  -3.48000002       6.05159300E-08
  -3.35999990       6.50606040E-08
  -3.24000001       6.99509357E-08
  -3.11999989       7.52035803E-08
  -3.00000000       8.08269149E-08
  -2.88000011       8.68187939E-08
  -2.75999999       9.31672375E-08
  -2.64000010       9.98542191E-08
  -2.51999998       1.06861563E-07
  -2.40000010       1.14177254E-07
  -2.27999997       1.21800596E-07
  -2.16000009       1.29744677E-07
  -2.03999996       1.38036114E-07
  -1.91999996       1.46712424E-07
  -1.79999995       1.55818171E-07
  -1.67999995       1.65401261E-07
  -1.55999994       1.75510195E-07
  -1.44000006       1.86192267E-07
  -1.32000005       1.97492355E-07
  -1.20000005       2.09451841E-07
  -1.08000004       2.22107062E-07
 -0.959999979       2.35487903E-07
 -0.839999974       2.49617244E-07
 -0.720000029       2.64512607E-07
 -0.600000024       2.80189766E-07
 -0.479999989       2.96668873E-07
 -0.360000014       3.13979967E-07
 -0.239999995       3.32166564E-07
 -0.119999997       3.51284228E-07
  -1.11022302E-15   3.71394208E-07
  0.119999997       3.92553005E-07
  0.239999995       4.14801747E-07
  0.360000014       4.38160043E-07
  0.479999989       4.62627241E-07
  0.600000024       4.88193280E-07
  0.720000029       5.14855799E-07
  0.839999974       5.42638929E-07
  0.959999979       5.71605426E-07
   1.08000004       6.01858062E-07
   1.20000005       6.33527293E-07
   1.32000005       6.66747496E-07
   1.44000006       7.01630938E-07
   1.55999994       7.38247195E-07
   1.67999995       7.76616503E-07
   1.79999995       8.16721013E-07
   1.91999996       8.58529688E-07
   2.03999996       9.02029626E-07
   2.16000009       9.47252090E-07
   2.27999997       9.94282914E-07
   2.40000010       1.04325454E-06
   2.51999998       1.09431994E-06
   2.64000010       1.14761963E-06
   2.75999999       1.20325103E-06
   2.88000011       1.26125360E-06
   3.00000000       1.32161415E-06
   3.11999989       1.38428857E-06
   3.24000001       1.44923592E-06
   3.35999990       1.51644929E-06
   3.48000002       1.58597447E-06
   3.59999990       1.65791073E-06
   3.72000003       1.73239266E-06
   3.83999991       1.80956306E-06
   3.96000004       1.88954402E-06
   4.07999992       1.97241889E-06
   4.19999981       2.05822880E-06
   4.32000017       2.14698252E-06
   4.44000006       2.23867823E-06
   4.55999994       2.33332116E-06
   4.67999983       2.43093723E-06
   4.80000019       2.53157282E-06
   4.92000008       2.63528773E-06
   5.03999996       2.74213994E-06
   5.15999985       2.85217402E-06
   5.28000021       2.96541725E-06
   5.40000010       3.08188078E-06
   5.51999998       3.20157187E-06
   5.63999987       3.32450168E-06
   5.76000023       3.45069157E-06
   5.88000011       3.58017064E-06
   6.00000000       3.71296824E-06
   6.11999989       3.84910390E-06
   6.23999977       3.98857765E-06
   6.36000013       4.13137241E-06
   6.48000002       4.27745590E-06
   6.59999990       4.42679584E-06
   6.71999979       4.57936903E-06
   6.84000015       4.73516957E-06
   6.96000004       4.89420836E-06
   7.07999992       5.05650360E-06
   7.19999981       5.22206938E-06
   7.32000017       5.39089797E-06
   7.44000006       5.56294981E-06
   7.55999994       5.73814714E-06
   7.67999983       5.91637763E-06
   7.80000019       6.09750759E-06
   7.92000008       6.28139014E-06
   8.03999996       6.46788249E-06
   8.15999985       6.65685138E-06
   8.27999973       6.84817587E-06
   8.39999962       7.04173817E-06
   8.52000046       7.23741505E-06
   8.64000034       7.43506416E-06
   8.76000023       7.63451681E-06
   8.88000011       7.83557334E-06
   9.00000000       8.03801322E-06
   9.11999989       8.24160179E-06
   9.23999977       8.44610349E-06
   9.35999966       8.65128459E-06
   9.47999954       8.85691588E-06
   9.60000038       9.06275818E-06
   9.72000027       9.26854864E-06
   9.84000015       9.47399803E-06
   9.96000004       9.67878168E-06
   10.0799999       9.88254669E-06
   10.1999998       1.00849284E-05
   10.3199997       1.02855647E-05
   10.4399996       1.04841010E-05
   10.5600004       1.06801945E-05
   10.6800003       1.08734957E-05
   10.8000002       1.10636383E-05
   10.9200001       1.12502221E-05
   11.0400000       1.14328041E-05
   11.1599998       1.16109059E-05
   11.2799997       1.17840227E-05
   11.3999996       1.19516462E-05
   11.5200005       1.21132725E-05
   11.6400003       1.22684060E-05
   11.7600002       1.24165526E-05
   11.8800001       1.25571987E-05
   12.0000000       1.26897930E-05
   12.1199999       1.28137317E-05
   12.2399998       1.29283580E-05
   12.3599997       1.30329790E-05
   12.4799995       1.31268798E-05
   12.6000004       1.32093564E-05
   12.7200003       1.32797322E-05
   12.8400002       1.33373633E-05
   12.9600000       1.33816229E-05
   13.0799999       1.34118727E-05
   13.1999998       1.34274351E-05
   13.3199997       1.34275515E-05
   13.4399996       1.34113798E-05
   13.5600004       1.33779913E-05
   13.6800003       1.33263957E-05
   13.8000002       1.32555851E-05
   13.9200001       1.31645702E-05
   14.0400000       1.30524113E-05
   14.1599998       1.29182263E-05
   14.2799997       1.27611765E-05
   14.3999996       1.25804299E-05
   14.5200005       1.23751242E-05
   14.6400003       1.21443245E-05
   14.7600002       1.18870094E-05
   14.8800001       1.16020756E-05
   15.0000000       1.12883654E-05
   15.1199999       1.09446992E-05
   15.2399998       1.05699100E-05
   15.3599997       1.01628566E-05
   15.4799995       9.72242560E-06
   15.6000004       9.24750566E-06
   15.7200003       8.73695717E-06
   15.8400002       8.18959052E-06
   15.9600000       7.60414923E-06
   16.0799999       6.97931546E-06
   16.2000008       6.31373268E-06
   16.3199997       5.60602984E-06
   16.4400005       4.85485270E-06
   16.5599995       4.05887295E-06
   16.6800003       3.21679317E-06
   16.7999992       2.32732691E-06
   16.9200001       1.38917949E-06
   17.0400009       4.01022731E-07
   17.1599998      -6.38537927E-07
   17.2800007      -1.73096532E-06
   17.3999996      -2.87779721E-06
   17.5200005      -4.08063715E-06
   17.6399994      -5.34113224E-06
   17.7600002      -6.66094002E-06
   17.8799992      -8.04170759E-06
   18.0000000      -9.48503930E-06
   18.1200008      -1.09924877E-05
   18.2399998      -1.25655488E-05
   18.3600006      -1.42056733E-05
   18.4799995      -1.59142965E-05
   18.6000004      -1.76928770E-05
   18.7199993      -1.95429384E-05
   18.8400002      -2.14660868E-05
   18.9599991      -2.34640211E-05
   19.0799999      -2.55385276E-05
   19.2000008      -2.76914452E-05
   19.3199997      -2.99246221E-05
   19.4400005      -3.22398810E-05
   19.5599995      -3.46389788E-05
   19.6800003      -3.71236092E-05
   19.7999992      -3.96953983E-05
   19.9200001      -4.23559686E-05
   20.0400009      -4.51069354E-05
   20.1599998      -4.79499795E-05
   20.2800007      -5.08868288E-05
   20.3999996      -5.39192661E-05
   20.5200005      -5.70490665E-05
   20.6399994      -6.02779910E-05
   20.7600002      -6.36077384E-05
   20.8799992      -6.70399313E-05
   21.0000000      -7.05761558E-05
   21.1200008      -7.42179545E-05
   21.2399998      -7.79668844E-05
   21.3600006      -8.18245462E-05
   21.4799995      -8.57925552E-05
   21.6000004      -8.98725557E-05
   21.7199993      -9.40661776E-05
   21.8400002      -9.83749924E-05
   21.9599991      -1.02800470E-04
   22.0799999      -1.07344022E-04
   22.2000008      -1.12006950E-04
   22.3199997      -1.16790492E-04
   22.4400005      -1.21695841E-04
   22.5599995      -1.26724190E-04
   22.6800003      -1.31876674E-04
   22.7999992      -1.37154391E-04
   22.9200001      -1.42558391E-04
   23.0400009      -1.48089719E-04
   23.1599998      -1.53749308E-04
   23.2800007      -1.59538045E-04
   23.3999996      -1.65456746E-04
   23.5200005      -1.71506137E-04
   23.6399994      -1.77686830E-04
   23.7600002      -1.83999335E-04
   23.8799992      -1.90444087E-04
   24.0000000      -1.97021393E-04
   24.1200008      -2.03731513E-04
   24.2399998      -2.10574639E-04
   24.3600006      -2.17550856E-04
   24.4799995      -2.24660122E-04
   24.6000004      -2.31902348E-04
   24.7199993      -2.39277200E-04
   24.8400002      -2.46784242E-04
   24.9599991      -2.54422921E-04
   25.0799999      -2.62192480E-04
   25.2000008      -2.70092132E-04
   25.3199997      -2.78120890E-04
   25.4400005      -2.86277733E-04
   25.5599995      -2.94561469E-04
   25.6800003      -3.02970788E-04
   25.7999992      -3.11504118E-04
   25.9200001      -3.20159714E-04
   26.0400009      -3.28935566E-04
   26.1599998      -3.37829493E-04
   26.2800007      -3.46839195E-04
   26.3999996      -3.55962256E-04
   26.5200005      -3.65196203E-04
   26.6399994      -3.74538533E-04
   26.7600002      -3.83986539E-04
   26.8799992      -3.93537397E-04
   27.0000000      -4.03187965E-04
   27.1200008      -4.12934925E-04
   27.2399998      -4.22774465E-04
   27.3600006      -4.32702625E-04
   27.4799995      -4.42715012E-04
   27.6000004      -4.52807231E-04
   27.7199993      -4.62974684E-04
   27.8400002      -4.73212713E-04
   27.9599991      -4.83516778E-04
   28.0799999      -4.93882108E-04
   28.2000008      -5.04304015E-04
   28.3199997      -5.14777610E-04
   28.4400005      -5.25297597E-04
   28.5599995      -5.35858388E-04
   28.6800003      -5.46454219E-04
   28.7999992      -5.57078922E-04
   28.9200001      -5.67726034E-04
   29.0400009      -5.78388805E-04
   29.1599998      -5.89060481E-04
   29.2800007      -5.99734136E-04
   29.3999996      -6.10402552E-04
   29.5200005      -6.21058629E-04
   29.6399994      -6.31695089E-04
   29.7600002      -6.42304600E-04
   29.8799992      -6.52879709E-04
   30.0000000      -6.63412909E-04
   30.1200008      -6.73896458E-04
   30.2399998      -6.84322382E-04
   30.3600006      -6.94682705E-04
   30.4799995      -7.04969047E-04
   30.6000004      -7.15173024E-04
   30.7199993      -7.25286256E-04
   30.8400002      -7.35300127E-04
   30.9599991      -7.45205907E-04
   31.0799999      -7.54994806E-04
   31.2000008      -7.64657860E-04
   31.3199997      -7.74186046E-04
   31.4400005      -7.83570344E-04
   31.5599995      -7.92801438E-04
   31.6800003      -8.01870425E-04
   31.7999992      -8.10768164E-04
   31.9200001      -8.19485751E-04
   32.0400009      -8.28014279E-04
   32.1599998      -8.36344960E-04
   32.2799988      -8.44468945E-04
   32.4000015      -8.52377270E-04
   32.5200005      -8.60060973E-04
   32.6399994      -8.67511088E-04
   32.7599983      -8.74718360E-04
   32.8800011      -8.81673768E-04
   33.0000000      -8.88368464E-04
   33.1199989      -8.94793484E-04
   33.2400017      -9.00940388E-04
   33.3600006      -9.06800735E-04
   33.4799995      -9.12366551E-04
   33.5999985      -9.17629863E-04
   33.7200012      -9.22583102E-04
   33.8400002      -9.27218643E-04
   33.9599991      -9.31529037E-04
   34.0800018      -9.35506891E-04
   34.2000008      -9.39144869E-04
   34.3199997      -9.42435989E-04
   34.4399986      -9.45373438E-04
   34.5600014      -9.47950815E-04
   34.6800003      -9.50162008E-04
   34.7999992      -9.52001486E-04
   34.9199982      -9.53463896E-04
   35.0400009      -9.54544288E-04
   35.1599998      -9.55237832E-04
   35.2799988      -9.55540221E-04
   35.4000015      -9.55446973E-04
   35.5200005      -9.54954070E-04
   35.6399994      -9.54057847E-04
   35.7599983      -9.52754926E-04
   35.8800011      -9.51042341E-04
   36.0000000      -9.48917877E-04
   36.1199989      -9.46379674E-04
   36.2400017      -9.43426508E-04
   36.3600006      -9.40057565E-04
   36.4799995      -9.36272438E-04
   36.5999985      -9.32070892E-04
   36.7200012      -9.27453220E-04
   36.8400002      -9.22419829E-04
   36.9599991      -9.16971650E-04
   37.0800018      -9.11109906E-04
   37.2000008      -9.04836459E-04
   37.3199997      -8.98153463E-04
   37.4399986      -8.91063770E-04
   37.5600014      -8.83570581E-04
   37.6800003      -8.75677797E-04
   37.7999992      -8.67389725E-04
   37.9199982      -8.58711195E-04
   38.0400009      -8.49647680E-04
   38.1599998      -8.40205001E-04
   38.2799988      -8.30389559E-04
   38.4000015      -8.20207933E-04
   38.5200005      -8.09667225E-04
   38.6399994      -7.98774650E-04
   38.7599983      -7.87537894E-04
   38.8800011      -7.75964872E-04
   39.0000000      -7.64064025E-04
   39.1199989      -7.51844374E-04
   39.2400017      -7.39315292E-04
   39.3600006      -7.26486789E-04
   39.4799995      -7.13369169E-04
   39.5999985      -6.99973083E-04
   39.7200012      -6.86309591E-04
   39.8400002      -6.72389870E-04
   39.9599991      -6.58225501E-04
   40.0800018      -6.43828418E-04
   40.2000008      -6.29211019E-04
   40.3199997      -6.14386168E-04
   40.4399986      -5.99366729E-04
   40.5600014      -5.84165915E-04
   40.6800003      -5.68796881E-04
   40.7999992      -5.53273014E-04
   40.9199982      -5.37607644E-04
   41.0400009      -5.21814392E-04
   41.1599998      -5.05906995E-04
   41.2799988      -4.89899539E-04
   41.4000015      -4.73806344E-04
   41.5200005      -4.57641901E-04
   41.6399994      -4.41420678E-04
   41.7599983      -4.25157254E-04
   41.8800011      -4.08866035E-04
   42.0000000      -3.92561458E-04
   42.1199989      -3.76257987E-04
   42.2400017      -3.59970058E-04
   42.3600006      -3.43712163E-04
   42.4799995      -3.27498739E-04
   42.5999985      -3.11344193E-04
   42.7200012      -2.95262784E-04
   42.8400002      -2.79268541E-04
   42.9599991      -2.63375288E-04
   43.0800018      -2.47596618E-04
   43.2000008      -2.31945902E-04
   43.3199997      -2.16436310E-04
   43.4399986      -2.01080780E-04
   43.5600014      -1.85892102E-04
   43.6800003      -1.70882748E-04
   43.7999992      -1.56064925E-04
   43.9199982      -1.41450524E-04
   44.0400009      -1.27051098E-04
   44.1599998      -1.12877911E-04
   44.2799988      -9.89418913E-05
   44.4000015      -8.52537414E-05
   44.5200005      -7.18238298E-05
   44.6399994      -5.86621754E-05
   44.7599983      -4.57783644E-05
   44.8800011      -3.31813899E-05
   45.0000000      -2.08796537E-05
   45.1199989      -8.88092927E-06
   45.2400017       2.80758672E-06
   45.3600006       1.41791697E-05
   45.4799995       2.52274713E-05
   45.5999985       3.59464684E-05
   45.7200012       4.63304677E-05
   45.8400002       5.63741596E-05
   45.9599991       6.60727092E-05
   46.0800018       7.54218199E-05
   46.2000008       8.44177630E-05
   46.3199997       9.30573515E-05
   46.4399986       1.01337922E-04
   46.5600014       1.09257242E-04
   46.6800003       1.16813571E-04
   46.7999992       1.24005615E-04
   46.9199982       1.30832646E-04
   47.0400009       1.37294584E-04
   47.1599998       1.43391939E-04
   47.2799988       1.49125874E-04
   47.4000015       1.54497990E-04
   47.5200005       1.59510353E-04
   47.6399994       1.64165322E-04
   47.7599983       1.68465544E-04
   47.8800011       1.72413987E-04
   48.0000000       1.76014029E-04
   48.1199989       1.79269511E-04
   48.2400017       1.82184725E-04
   48.3600006       1.84764460E-04
   48.4799995       1.87013909E-04
   48.5999985       1.88938648E-04
   48.7200012       1.90544612E-04
   48.8400002       1.91838044E-04
   48.9599991       1.92825639E-04
   49.0800018       1.93514337E-04
   49.2000008       1.93911503E-04
   49.3199997       1.94024818E-04
   49.4399986       1.93862172E-04
   49.5600014       1.93431697E-04
   49.6800003       1.92741747E-04
   49.7999992       1.91800791E-04
   49.9199982       1.90617502E-04
   50.0400009       1.89200742E-04
   50.1599998       1.87559461E-04
   50.2799988       1.85702767E-04
   50.4000015       1.83639844E-04
   50.5200005       1.81379917E-04
   50.6399994       1.78932343E-04
   50.7599983       1.76306552E-04
   50.8800011       1.73512148E-04
   51.0000000       1.70558866E-04
   51.1199989       1.67456543E-04
   51.2400017       1.64215060E-04
   51.3600006       1.60844269E-04
   51.4799995       1.57353905E-04
   51.5999985       1.53753528E-04
   51.7200012       1.50052569E-04
   51.8400002       1.46260340E-04
   51.9599991       1.42386038E-04
   52.0800018       1.38438787E-04
   52.2000008       1.34427741E-04
   52.3199997       1.30361950E-04
   52.4399986       1.26250336E-04
   52.5600014       1.22101672E-04
   52.6800003       1.17924501E-04
   52.7999992       1.13727139E-04
   52.9199982       1.09517656E-04
   53.0400009       1.05303880E-04
   53.1599998       1.01093443E-04
   53.2799988       9.68937675E-05
   53.4000015       9.27121073E-05
   53.5200005       8.85555637E-05
   53.6399994       8.44310489E-05
   53.7599983       8.03452713E-05
   53.8800011       7.63046846E-05
   54.0000000       7.23154517E-05
   54.1199989       6.83833860E-05
   54.2400017       6.45139808E-05
   54.3600006       6.07123620E-05
   54.4799995       5.69833464E-05
   54.5999985       5.33314596E-05
   54.7200012       4.97609690E-05
   54.8400002       4.62759126E-05
   54.9599991       4.28801031E-05
   55.0800018       3.95771422E-05
   55.2000008       3.63703912E-05
   55.3199997       3.32629570E-05
   55.4399986       3.02576955E-05
   55.5600014       2.73571604E-05
   55.6800003       2.45636147E-05
   55.7999992       2.18790010E-05
   55.9199982       1.93049691E-05
   56.0400009       1.68428869E-05
   56.1599998       1.44938795E-05
   56.2799988       1.22588672E-05
   56.4000015       1.01385767E-05
   56.5200005       8.13352744E-06
   56.6399994       6.24400673E-06
   56.7599983       4.47002094E-06
   56.8800011       2.81127632E-06
   57.0000000       1.26719078E-06
   57.1199989      -1.63059823E-07
   57.2400017      -1.48047479E-06
   57.3600006      -2.68616350E-06
   57.4799995      -3.78131222E-06
   57.5999985      -4.76719151E-06
   57.7200012      -5.64519905E-06
   57.8400002      -6.41690667E-06
   57.9599991      -7.08408925E-06
   58.0800018      -7.64872220E-06
   58.2000008      -8.11294285E-06
   58.3199997      -8.47900992E-06
   58.4399986      -8.74926809E-06
   58.5600014      -8.92614389E-06
   58.6800003      -9.01216572E-06
   58.7999992      -9.00998748E-06
   58.9199982      -8.92239586E-06
   59.0400009      -8.75229398E-06
   59.1599998      -8.50266133E-06
   59.2799988      -8.17650562E-06
   59.4000015      -7.77684363E-06
   59.5200005      -7.30670354E-06
   59.6399994      -6.76914715E-06
   59.7599983      -6.16729585E-06
   59.8800011      -5.50432424E-06
   60.0000000      -4.78342281E-06
   60.1199989      -4.00773570E-06
   60.2400017      -3.18030970E-06
   60.3600006      -2.30407636E-06
   60.4799995      -1.38188580E-06
   60.5999985      -4.16587994E-07
   60.7200012       5.88879743E-07
   60.8400002       1.63144193E-06
   60.9599991       2.70789292E-06
   61.0800018       3.81496375E-06
   61.2000008       4.94941924E-06
   61.3199997       6.10814686E-06
   61.4399986       7.28820396E-06
   61.5600014       8.48681429E-06
   61.6800003       9.70132533E-06
   61.7999992       1.09291605E-05
   61.9199982       1.21677922E-05
   62.0400009       1.34147431E-05
   62.1599998       1.46676093E-05
   62.2799988       1.59240863E-05
   62.4000015       1.71819738E-05
   62.5200005       1.84391556E-05
   62.6399994       1.96935580E-05
   62.7599983       2.09431164E-05
   62.8800011       2.21857663E-05
   63.0000000       2.34194595E-05
   63.1199989       2.46422078E-05
   63.2400017       2.58521068E-05
   63.3600006       2.70473774E-05
   63.4799995       2.82263500E-05
   63.5999985       2.93874782E-05
   63.7200012       3.05293106E-05
   63.8400002       3.16505175E-05
   63.9599991       3.27498892E-05
   64.0800018       3.38263490E-05
   64.1999969       3.48789727E-05
   64.3199997       3.59069272E-05
   64.4400024       3.69094414E-05
   64.5599976       3.78857621E-05
   64.6800003       3.88351182E-05
   64.8000031       3.97567273E-05
   64.9199982       4.06498402E-05
   65.0400009       4.15137874E-05
   65.1600037       4.23479942E-05
   65.2799988       4.31520057E-05
   65.4000015       4.39254763E-05
   65.5199966       4.46680970E-05
   65.6399994       4.53796092E-05
   65.7600021       4.60597839E-05
   65.8799973       4.67084901E-05
   66.0000000       4.73256878E-05
   66.1200027       4.79114969E-05
   66.2399979       4.84661650E-05
   66.3600006       4.89900194E-05
   66.4800034       4.94833948E-05
   66.5999985       4.99465568E-05
   66.7200012       5.03797128E-05
   66.8399963       5.07830009E-05
   66.9599991       5.11565886E-05
   67.0800018       5.15007341E-05
   67.1999969       5.18158304E-05
   67.3199997       5.21023976E-05
   67.4400024       5.23610106E-05
   67.5599976       5.25922369E-05
   67.6800003       5.27965640E-05
   67.8000031       5.29743957E-05
   67.9199982       5.31261030E-05
   68.0400009       5.32521008E-05
   68.1600037       5.33529674E-05
   68.2799988       5.34294486E-05
   68.4000015       5.34824285E-05
   68.5199966       5.35128711E-05
   68.6399994       5.35216786E-05
   68.7600021       5.35096260E-05
   68.8799973       5.34773390E-05
   69.0000000       5.34253522E-05
   69.1200027       5.33541861E-05
   69.2399979       5.32644190E-05
   69.3600006       5.31567493E-05
   69.4800034       5.30319339E-05
   69.5999985       5.28907367E-05
   69.7200012       5.27338598E-05
   69.8399963       5.25618889E-05
   69.9599991       5.23753406E-05
   70.0800018       5.21747206E-05
   70.1999969       5.19606401E-05
   70.3199997       5.17338485E-05
   70.4400024       5.14952189E-05
   70.5599976       5.12456791E-05
   70.6800003       5.09860874E-05
   70.8000031       5.07171499E-05
   70.9199982       5.04393793E-05
   71.0400009       5.01531467E-05
   71.1600037       4.98587688E-05
   71.2799988       4.95566055E-05
   71.4000015       4.92471154E-05
   71.5199966       4.89308586E-05
   71.6399994       4.86084391E-05
   71.7600021       4.82804571E-05
   71.8799973       4.79474511E-05
   72.0000000       4.76099267E-05
   72.1200027       4.72683714E-05
   72.2399979       4.69233128E-05
   72.3600006       4.65753146E-05
   72.4800034       4.62249482E-05
   72.5999985       4.58727191E-05
   72.7200012       4.55190129E-05