  -30.0000000       0.00000000    
  -29.8799992       0.00000000    
  -29.7600002       0.00000000    
  -29.6399994       0.00000000    
  -29.5200005       0.00000000    
  -29.3999996       0.00000000    
  -29.2800007       5.40901207E-43
  -29.1599998       7.85287659E-42
  -29.0400009       4.87259502E-41
  -28.9200001       1.69590745E-40
  -28.7999992       3.37790001E-40
  -28.6800003       2.19087410E-40
  -28.5599995      -8.90299565E-40
  -28.4400005      -3.67987983E-39
  -28.3199997      -9.36507382E-39
  -28.2000008      -2.58579055E-38
  -28.0799999      -8.27992903E-38
  -27.9599991      -2.39542914E-37
  -27.8400002      -5.30337793E-37
  -27.7199993      -7.68452258E-37
  -27.6000004      -2.16436557E-37
  -27.4799995       2.59703357E-36
  -27.3600006       9.25793637E-36
  -27.2399998       1.93057958E-35
  -27.1200008       2.66096593E-35
  -27.0000000       1.64036535E-35
  -26.8799992      -3.23761077E-35
  -26.7600002      -1.34088239E-34
  -26.6399994      -2.71475622E-34
  -26.5200005      -3.68065235E-34
  -26.3999996      -2.80699028E-34
  -26.2800007       1.57647304E-34
  -26.1599998       1.02637711E-33
  -26.0400009       2.15767792E-33
  -25.9200001       3.00785256E-33
  -25.7999992       2.68676113E-33
  -25.6800003       2.64620837E-34
  -25.5599995      -4.62701760E-33
  -25.4400005      -1.10771968E-32
  -25.3199997      -1.64518119E-32
  -25.2000008      -1.67164833E-32
  -25.0799999      -7.86159675E-33
  -24.9599991       1.17116089E-32
  -24.8400002       3.86713338E-32
  -24.7199993       6.35152335E-32
  -24.6000004       7.20875613E-32
  -24.4799995       5.05474091E-32
  -24.3600006      -7.12666960E-33
  -24.2399998      -9.19147597E-32
  -24.1200008      -1.76874695E-31
  -24.0000000      -2.22214324E-31
  -23.8799992      -1.89286153E-31
  -23.7600002      -6.01426638E-32
  -23.6399994       1.45067746E-31
  -23.5200005       3.62631026E-31
  -23.3999996       4.99228971E-31
  -23.2800007       4.65821563E-31
  -23.1599998       2.22052199E-31
  -23.0400009      -1.86947777E-31
  -22.9200001      -6.22244972E-31
  -22.7999992      -8.85562243E-31
  -22.6800003      -7.94935860E-31
  -22.5599995      -2.79524657E-31
  -22.4400005       5.45285169E-31
  -22.3199997       1.36542951E-30
  -22.2000008       1.74674548E-30
  -22.0799999       1.30047620E-30
  -21.9599991      -1.09863747E-31
  -21.8400002      -2.20072328E-30
  -21.7199993      -4.23124289E-30
  -21.6000004      -5.16229648E-30
  -21.4799995      -4.01449640E-30
  -21.3600006      -3.41277325E-31
  -21.2399998       5.34814909E-30
  -21.1200008       1.14211505E-29
  -21.0000000       1.53816065E-29
  -20.8799992       1.46110088E-29
  -20.7600002       7.45796510E-30
  -20.6399994      -5.65796389E-30
  -20.5200005      -2.15993540E-29
  -20.3999996      -3.47824272E-29
  -20.2800007      -3.86183801E-29
  -20.1599998      -2.79748817E-29
  -20.0400009      -2.00936653E-30
  -19.9200001       3.36991006E-29
  -19.7999992       6.69354906E-29
  -19.6800003       8.14553413E-29
  -19.5599995       6.24936040E-29
  -19.4400005       4.06092936E-30
  -19.3199997      -8.43160273E-29
  -19.2000008      -1.74529300E-28
  -19.0799999      -2.23442588E-28
  -18.9599991      -1.84569077E-28
  -18.8400002      -2.67379231E-29
  -18.7199993       2.44689448E-28
  -18.6000004       5.71458322E-28
  -18.4799995       8.39695922E-28
  -18.3600006       8.98232830E-28
  -18.2399998       6.00659224E-28
  -18.1200008      -1.33919093E-28
  -18.0000000      -1.25565866E-27
  -17.8799992      -2.53654584E-27
  -17.7600002      -3.56655956E-27
  -17.6399994      -3.81522446E-27
  -17.5200005      -2.76694965E-27
  -17.3999996      -1.16382165E-28
  -17.2800007       4.01717979E-27
  -17.1599998       8.92241512E-27
  -17.0400009       1.32556196E-26
  -16.9200001       1.52004036E-26
  -16.7999992       1.28660779E-26
  -16.6800003       4.90087348E-27
  -16.5599995      -8.78634817E-27
  -16.4400005      -2.63865745E-26
  -16.3199997      -4.38841534E-26
  -16.2000008      -5.53398004E-26
  -16.0799999      -5.39452361E-26
  -15.9600000      -3.38647417E-26
  -15.8400002       7.36862106E-27
  -15.7200003       6.64211884E-26
  -15.6000004       1.32463489E-25
  -15.4799995       1.87108377E-25
  -15.3599997       2.06776701E-25
  -15.2399998       1.67882765E-25
  -15.1199999       5.45174931E-26
  -15.0000000      -1.32641452E-25
  -14.8800001      -3.68460067E-25
  -14.7600002      -5.99543311E-25
  -14.6400003      -7.47688529E-25
  -14.5200005      -7.23037316E-25
  -14.3999996      -4.47483123E-25
  -14.2799997       1.14090586E-25
  -14.1599998       9.20859324E-25
  -14.0400000       1.83111912E-24
  -13.9200001       2.59743556E-24
  -13.8000002       2.89366368E-24
  -13.6800003       2.38141527E-24
  -13.5600004       8.14720209E-25
  -13.4399996      -1.83142283E-24
  -13.3199997      -5.23820128E-24
  -13.1999998      -8.66915931E-24
  -13.0799999      -1.09955014E-23
  -12.9600000      -1.08645300E-23
  -12.8400002      -7.03117326E-24
  -12.7200003       1.17094825E-24
  -12.6000004       1.33016369E-23
  -12.4799995       2.73753351E-23
  -12.3599997       3.97056381E-23
  -12.2399998       4.52362473E-23
  -12.1199999       3.85069293E-23
  -12.0000000       1.52691601E-23
  -11.8800001      -2.54446328E-23
  -11.7600002      -7.92515351E-23
  -11.6400003      -1.35044076E-22
  -11.5200005      -1.75143908E-22
  -11.3999996      -1.77744587E-22
  -11.2799997      -1.22038625E-22
  -11.1599998       4.26990410E-24
  -11.0400000       1.96327625E-22
  -10.9200001       4.24674244E-22
  -10.8000002       6.32091347E-22
  -10.6800003       7.38085829E-22
  -10.5600004       6.53521909E-22
  -10.4399996       3.05838722E-22
  -10.3199997      -3.28026262E-22
  -10.1999998      -1.18796101E-21
  -10.0799999      -2.10707257E-21
  -9.96000004      -2.81124319E-21
  -9.84000015      -2.95401504E-21
  -9.72000027      -2.19355394E-21
  -9.60000038      -3.07982051E-22
  -9.47999954       2.66918542E-21
  -9.35999966       6.32774226E-21
  -9.23999977       9.82071798E-21
  -9.11999989       1.19165198E-20
  -9.00000000       1.12035232E-20
  -8.88000011       6.45798887E-21
  -8.76000023      -2.86141827E-21
  -8.64000034      -1.60887938E-20
  -8.52000046      -3.09503359E-20
  -8.39999962      -4.34797569E-20
  -8.27999973      -4.84357643E-20
  -8.15999985      -4.03394982E-20
  -8.03999996      -1.51098643E-20
  -7.92000008       2.79267225E-20
  -7.80000019       8.41053853E-20
  -7.67999983       1.42222152E-19
  -7.55999994       1.84804918E-19
  -7.44000006       1.90497097E-19
  -7.32000017       1.38844941E-19
  -7.19999981       1.71689301E-20
  -7.07999992      -1.71606037E-19
  -6.96000004      -4.02130934E-19
  -6.84000015      -6.23431397E-19
  -6.71999979      -7.62072968E-19
  -6.59999990      -7.33801331E-19
  -6.48000002      -4.64177002E-19
  -6.36000013       8.37771562E-20
  -6.23999977       8.79976346E-19
  -6.11999989       1.80378024E-18
  -6.00000000       2.63663200E-18
  -5.88000011       3.08073514E-18
  -5.76000023       2.81052191E-18
  -5.63999987       1.55703939E-18
  -5.51999998      -7.84360316E-19
  -5.40000010      -4.04403018E-18
  -5.28000021      -7.69719353E-18
  -5.15999985      -1.08497211E-17
  -5.03999996      -1.23257844E-17
  -4.92000008      -1.08791770E-17
  -4.80000019      -5.52416814E-18
  -4.67999983       4.05469502E-18
  -4.55999994       1.70956974E-17
  -4.44000006       3.14742025E-17
  -4.32000017       4.36752885E-17
  -4.19999981       4.91505625E-17
  -4.07999992       4.31328764E-17
  -3.96000004       2.18868483E-17
  -3.83999991      -1.57590116E-17
  -3.72000003      -6.68999989E-17
  -3.59999990      -1.23492560E-16
  -3.48000002      -1.72237188E-16
  -3.35999990      -1.95861440E-16
  -3.24000001      -1.76074062E-16
  -3.11999989      -9.81243399E-17
  -3.00000000       4.35634206E-17
  -2.88000011       2.39730891E-16
  -2.75999999       4.62115077E-16
  -2.64000010       6.62533131E-16
  -2.51999998       7.76882208E-16
  -2.40000010       7.35123378E-16
  -2.27999997       4.77198987E-16
  -2.16000009      -2.67408301E-17
  -2.03999996      -7.55231516E-16
  -1.91999996      -1.61859928E-15
  -1.79999995      -2.45241237E-15
  -1.67999995      -3.02731121E-15
  -1.55999994      -3.07958479E-15
  -1.44000006      -2.36341780E-15
  -1.32000005      -7.20674637E-16
  -1.20000005       1.84196738E-15
  -1.08000004       5.08466594E-15
 -0.959999979       8.49530424E-15
 -0.839999974       1.13011195E-14
 -0.720000029       1.25487838E-14
 -0.600000024       1.12610803E-14
 -0.479999989       6.66311183E-15
 -0.360000014      -1.54839179E-15
 -0.239999995      -1.29396937E-14
 -0.119999997      -2.61427791E-14
  -1.11022302E-15  -3.87991268E-14
  0.119999997      -4.77122749E-14
  0.239999995      -4.92543730E-14
  0.360000014      -4.00302282E-14
  0.479999989      -1.77451082E-14
  0.600000024       1.78438468E-14
  0.720000029       6.40755217E-14
  0.839999974       1.14859619E-13
  0.959999979       1.60715381E-13
   1.08000004       1.89571977E-13
   1.20000005       1.88431817E-13
   1.32000005       1.45845521E-13
   1.44000006       5.49543999E-14
   1.55999994      -8.33511659E-14
   1.67999995      -2.57788880E-13
   1.79999995      -4.45295629E-13
   1.91999996      -6.11617202E-13
   2.03999996      -7.14430956E-13
   2.16000009      -7.09215022E-13
   2.27999997      -5.57581271E-13
   2.40000010      -2.37192671E-13
   2.51999998       2.48221040E-13
   2.64000010       8.60732817E-13
   2.75999999       1.52420730E-12
   2.88000011       2.12652530E-12
   3.00000000       2.52958657E-12
   3.11999989       2.58758011E-12
   3.24000001       2.17254383E-12
   3.35999990       1.20453441E-12
   3.48000002      -3.17966817E-13
   3.59999990      -2.29311795E-12
   3.72000003      -4.50259057E-12
   3.83999991      -6.61619501E-12
   3.96000004      -8.21858206E-12
   4.07999992      -8.85944183E-12
   4.19999981      -8.12470403E-12
   4.32000017      -5.72167704E-12
   4.44000006      -1.56659494E-12
   4.55999994       4.14048743E-12
   4.67999983       1.08702821E-11
   4.80000019       1.77643022E-11
   4.92000008       2.36924091E-11
   5.03999996       2.73729303E-11
   5.15999985       2.75506163E-11
   5.28000021       2.32166144E-11
   5.40000010       1.38432937E-11
   5.51999998      -4.02284515E-13
   5.63999987      -1.85076798E-11
   5.76000023      -3.85676768E-11
   5.88000011      -5.78728593E-11
   6.00000000      -7.31516583E-11
   6.11999989      -8.09617304E-11
   6.23999977      -7.82009874E-11
   6.36000013      -6.26823524E-11
   6.48000002      -3.36934716E-11
   6.59999990       7.55172834E-12
   6.71999979       5.76653690E-11
   6.84000015       1.11124991E-10
   6.96000004       1.60654406E-10
   7.07999992       1.97957747E-10
   7.19999981       2.14765136E-10
   7.32000017       2.04091050E-10
   7.44000006       1.61554534E-10
   7.55999994       8.65708130E-11
   7.67999983      -1.67914571E-11
   7.80000019      -1.39482162E-10
   7.92000008      -2.67820044E-10
   8.03999996      -3.84596438E-10
   8.15999985      -4.70907924E-10
   8.27999973      -5.08579345E-10
   8.39999962      -4.82929086E-10
   8.52000046      -3.85531634E-10
   8.64000034      -2.16577895E-10
   8.76000023       1.35791135E-11
   8.88000011       2.84054696E-10
   9.00000000       5.64493119E-10
   9.11999989       8.17650558E-10
   9.23999977       1.00339259E-09
   9.35999966       1.08378417E-09
   9.47999954       1.02874842E-09
   9.60000038       8.21608448E-10
   9.72000027       4.63739963E-10
   9.84000015      -2.24385285E-11
   9.96000004      -5.92806415E-10
   10.0799999      -1.18367227E-09
   10.1999998      -1.71686587E-09
   10.3199997      -2.10759632E-09
   10.4399996      -2.27451680E-09
   10.5600004      -2.15106599E-09
   10.6800003      -1.69687742E-09
   10.8000002      -9.07861120E-10
   10.9200001       1.76471046E-10
   11.0400000       1.46974544E-09
   11.1599998       2.84055379E-09
   11.2799997       4.11996215E-09
   11.3999996       5.11474862E-09
   11.5200005       5.62580693E-09
   11.6400003       5.47055024E-09
   11.7600002       4.50755655E-09
   11.8800001       2.66125699E-09
   12.0000000      -5.58354370E-11
   12.1199999      -3.52597551E-09
   12.2399998      -7.51661489E-09
   12.3599997      -1.16805783E-08
   12.4799995      -1.55676094E-08
   12.6000004      -1.86481817E-08
   12.7200003      -2.03495567E-08
   12.8400002      -2.01031263E-08
   12.9600000      -1.74009749E-08
   13.0799999      -1.18586119E-08
   13.1999998      -3.27977445E-09
   13.3199997       8.28156566E-09
   13.4399996       2.24676118E-08
   13.5600004       3.85775749E-08
   13.6800003       5.55489912E-08
   13.8000002       7.19653741E-08
   13.9200001       8.60953193E-08
   14.0400000       9.59668611E-08
   14.1599998       9.94794505E-08
   14.2799997       9.45534850E-08
   14.3999996       7.93149297E-08
   14.5200005       5.23095345E-08
   14.6400003       1.27379893E-08
   14.7600002      -3.92997848E-08
   14.8800001      -1.02565870E-07
   15.0000000      -1.74468454E-07
   15.1199999      -2.50887467E-07
   15.2399998      -3.26062008E-07
   15.3599997      -3.92558206E-07
   15.4799995      -4.41334947E-07
   15.6000004      -4.61921474E-07
   15.7200003      -4.42715731E-07
   15.8400002      -3.71405690E-07
   15.9600000      -2.35508963E-07
   16.0799999      -2.30175008E-08
   16.2000008       2.76874715E-07
   16.3199997       6.72990893E-07
   16.4400005       1.17137586E-06
   16.5599995       1.77452807E-06
   16.6800003       2.48071024E-06
   16.7999992       3.28338319E-06
   16.9200001       4.17081264E-06
   17.0400009       5.12589349E-06
   17.1599998       6.12622216E-06
   17.2800007       7.14444286E-06
   17.3999996       8.14887972E-06
   17.5200005       9.10444305E-06
   17.6399994       9.97379084E-06
   17.7600002       1.07187134E-05
   17.8799992       1.13016795E-05
   18.0000000       1.16874744E-05
   18.1200008       1.18448625E-05
   18.2399998       1.17481832E-05
   18.3600006       1.13788010E-05
   18.4799995       1.07263286E-05
   18.6000004       9.78953813E-06
   18.7199993       8.57692248E-06
   18.8400002       7.10684935E-06
   18.9599991       5.40728706E-06
   19.0799999       3.51510494E-06
   19.2000008       1.47496769E-06
   19.3199997      -6.62130105E-07
   19.4400005      -2.84063003E-06
   19.5599995      -5.00239867E-06
   19.6800003      -7.08884909E-06
   19.7999992      -9.04310127E-06
   19.9200001      -1.08120776E-05
   20.0400009      -1.23484551E-05
   20.1599998      -1.36123708E-05
   20.2800007      -1.45728318E-05
   20.3999996      -1.52087496E-05
   20.5200005      -1.55095804E-05
   20.6399994      -1.54755508E-05
   20.7600002      -1.51174600E-05
   20.8799992      -1.44560827E-05
   21.0000000      -1.35212167E-05
   21.1200008      -1.23504142E-05
   21.2399998      -1.09874572E-05
   21.3600006      -9.48065463E-06
   21.4799995      -7.88101624E-06
   21.6000004      -6.24039330E-06
   21.7199993      -4.60964566E-06
   21.8400002      -3.03690467E-06
   21.9599991      -1.56599901E-06
   22.0799999      -2.35087711E-07
   22.2000008       9.24447590E-07
   22.3199997       1.88882609E-06
   22.4400005       2.64238224E-06
   22.5599995       3.17776107E-06
   22.6800003       3.49580159E-06
   22.7999992       3.60511649E-06
   22.9200001       3.52139659E-06
   23.0400009       3.26647660E-06
   23.1599998       2.86720092E-06
   23.2800007       2.35414518E-06
   23.3999996       1.76024639E-06
   23.5200005       1.11940153E-06
   23.6399994       4.65093621E-07
   23.7600002      -1.70899767E-07
   23.8799992      -7.59664545E-07
   24.0000000      -1.27613157E-06
   24.1200008      -1.69984867E-06
   24.2399998      -2.01552189E-06
   24.3600006      -2.21331538E-06
   24.4799995      -2.28891099E-06
   24.6000004      -2.24334303E-06
   24.7199993      -2.08262941E-06
   24.8400002      -1.81722874E-06
   24.9599991      -1.46136517E-06
   25.0799999      -1.03225466E-06
   25.2000008      -5.49276422E-07
   25.3199997      -3.31259358E-08
   25.4400005       4.95016707E-07
   25.5599995       1.01427361E-06
   25.6800003       1.50479059E-06
   25.7999992       1.94837594E-06
   25.9200001       2.32904813E-06
   26.0400009       2.63348670E-06
   26.1599998       2.85138435E-06
   26.2800007       2.97569954E-06
   26.3999996       3.00281272E-06
   26.5200005       2.93258267E-06
   26.6399994       2.76830701E-06
   26.7600002       2.51658344E-06
   26.8799992       2.18707237E-06
   27.0000000       1.79216420E-06
   27.1200008       1.34655136E-06
   27.2399998       8.66713094E-07
   27.3600006       3.70326546E-07
   27.4799995      -1.24381202E-07
   27.6000004      -5.99318298E-07
   27.7199993      -1.03722277E-06
   27.8400002      -1.42233864E-06
   27.9599991      -1.74104139E-06
   28.0799999      -1.98238217E-06
   28.2000008      -2.13852513E-06
   28.3199997      -2.20505081E-06
   28.4400005      -2.18111586E-06
   28.5599995      -2.06945583E-06
   28.6800003      -1.87623630E-06
   28.7999992      -1.61076025E-06
   28.9200001      -1.28504644E-06
   29.0400009      -9.13304746E-07
   29.1599998      -5.11334292E-07
   29.2800007      -9.58706110E-08
   29.3999996       3.16086783E-07
   29.5200005       7.07941865E-07
   29.6399994       1.06413950E-06
   29.7600002       1.37075472E-06
   29.8799992       1.61601577E-06
   30.0000000       1.79074925E-06
   30.1200008       1.88873446E-06
   30.2399998       1.90696176E-06
   30.3600006       1.84578073E-06
   30.4799995       1.70893588E-06
   30.6000004       1.50347807E-06
   30.7199993       1.23954737E-06
   30.8400002       9.30024328E-07
   30.9599991       5.90048501E-07
   31.0799999       2.36412276E-07
   31.2000008      -1.13157007E-07
   31.3199997      -4.40803319E-07
   31.4400005      -7.29404917E-07
   31.5599995      -9.63454340E-07
   31.6800003      -1.12990733E-06
   31.7999992      -1.21895141E-06
   31.9200001      -1.22464019E-06
   32.0400009      -1.14534703E-06
   32.1599998      -9.83997666E-07
   32.2799988      -7.48051889E-07
   32.4000015      -4.49222483E-07
   32.5200005      -1.02934230E-07
   32.6399994       2.72454997E-07
   32.7599983       6.56631414E-07
   32.8800011       1.02844592E-06
   33.0000000       1.36711276E-06
   33.1199989       1.65341385E-06
   33.2400017       1.87083049E-06
   33.3600006       2.00653653E-06
   33.4799995       2.05218726E-06
   33.5999985       2.00445606E-06
   33.7200012       1.86528757E-06
   33.8400002       1.64185042E-06
   33.9599991       1.34619825E-06
   34.0800018       9.94655238E-07
   34.2000008       6.06967717E-07
   34.3199997       2.05268449E-07
   34.4399986      -1.87087082E-07
   34.5600014      -5.46752233E-07
   34.6800003      -8.51623838E-07
   34.7999992      -1.08202107E-06
   34.9199982      -1.22175140E-06
   35.0400009      -1.25901727E-06
   35.1599998      -1.18712057E-06
   35.2799988      -1.00493719E-06
   35.4000015      -7.17135208E-07
   35.5200005      -3.34126554E-07
   35.6399994       1.28252822E-07
   35.7599983       6.49328683E-07
   35.8800011       1.20442417E-06
   36.0000000       1.76591800E-06
   36.1199989       2.30448882E-06
   36.2400017       2.79049527E-06
   36.3600006       3.19543392E-06
   36.4799995       3.49340507E-06
   36.5999985       3.66251243E-06
   36.7200012       3.68612359E-06
   36.8400002       3.55390898E-06
   36.9599991       3.26260010E-06
   37.0800018       2.81640814E-06
   37.2000008       2.22706717E-06
   37.3199997       1.51348854E-06
   37.4399986       7.01032832E-07
   37.5600014      -1.79564097E-07
   37.6800003      -1.09355597E-06
   37.7999992      -2.00376394E-06
   37.9199982      -2.87227817E-06
   38.0400009      -3.66218501E-06
   38.1599998      -4.33922241E-06
   38.2799988      -4.87327588E-06
   38.4000015      -5.23964127E-06
   38.5200005      -5.41999543E-06
   38.6399994      -5.40305109E-06
   38.7599983      -5.18488150E-06
   38.8800011      -4.76892637E-06
   39.0000000      -4.16571766E-06
   39.1199989      -3.39235635E-06
   39.2400017      -2.47180219E-06
   39.3600006      -1.43201851E-06
   39.4799995      -3.05024543E-07
   39.5999985       8.74106320E-07
   39.7200012       2.06827394E-06
   39.8400002       3.23938320E-06
   39.9599991       4.34936919E-06
   40.0800018       5.36121161E-06
   40.2000008       6.23993992E-06
   40.3199997       6.95361905E-06
   40.4399986       7.47431977E-06
   40.5600014       7.77904916E-06
   40.6800003       7.85062730E-06
   40.7999992       7.67846723E-06
   40.9199982       7.25923974E-06
   41.0400009       6.59734951E-06
   41.1599998       5.70520751E-06
   41.2799988       4.60323781E-06
   41.4000015       3.31959745E-06
   41.5200005       1.88958461E-06
   41.6399994       3.54730048E-07
   41.7599983      -1.23840994E-06
   41.8800011      -2.83973509E-06
   42.0000000      -4.39729956E-06
   42.1199989      -5.85917132E-06
   42.2400017      -7.17537114E-06
   42.3600006      -8.29980763E-06
   42.4799995      -9.19212107E-06
   42.5999985      -9.81936137E-06
   42.7200012      -1.01574005E-05
   42.8400002      -1.01920432E-05
   42.9599991      -9.91974775E-06
   43.0800018      -9.34794934E-06
   43.2000008      -8.49494609E-06
   43.3199997      -7.38936023E-06
   43.4399986      -6.06916910E-06
   43.5600014      -4.58036402E-06
   43.6800003      -2.97526594E-06
   43.7999992      -1.31055970E-06
   43.9199982       3.54872356E-07
   44.0400009       1.96224346E-06
   44.1599998       3.45519129E-06
   44.2799988       4.78204902E-06
   44.4000015       5.89796764E-06
   44.5200005       6.76678519E-06
   44.6399994       7.36257380E-06
   44.7599983       7.67075926E-06
   44.8800011       7.68876725E-06
   45.0000000       7.42613975E-06
   45.1199989       6.90408660E-06
   45.2400017       6.15448516E-06
   45.3600006       5.21834590E-06
   45.4799995       4.14380656E-06
   45.5999985       2.98374221E-06
   45.7200012       1.79311178E-06
   45.8400002       6.26176757E-07
   45.9599991      -4.66248622E-07
   46.0800018      -1.43935608E-06
   46.2000008      -2.25655231E-06
   46.3199997      -2.89117861E-06
   46.4399986      -3.32763193E-06
   46.5600014      -3.56180999E-06
   46.6800003      -3.60085596E-06
   46.7999992      -3.46222578E-06
   46.9199982      -3.17214312E-06
   47.0400009      -2.76356263E-06
   47.1599998      -2.27378450E-06
   47.2799988      -1.74189881E-06
   47.4000015      -1.20623247E-06
   47.5200005      -7.01983481E-07
   47.6399994      -2.59189193E-07
   47.7599983       9.88414257E-08
   47.8800011       3.56550089E-07
   48.0000000       5.06567289E-07
   48.1199989       5.49572803E-07
   48.2400017       4.93628136E-07
   48.3600006       3.53066440E-07
   48.4799995       1.47050372E-07
   48.5999985      -1.02075049E-07
   48.7200012      -3.70505347E-07
   48.8400002      -6.34651144E-07
   48.9599991      -8.72657722E-07
   49.0800018      -1.06568166E-06
   49.2000008      -1.19886818E-06
   49.3199997      -1.26199450E-06
   49.4399986      -1.24977407E-06
   49.5600014      -1.16183946E-06
   49.6800003      -1.00243847E-06
   49.7999992      -7.79894037E-07
   49.9199982      -5.05882895E-07
   50.0400009      -1.94593966E-07
   50.1599998       1.38177484E-07
   50.2799988       4.75945484E-07
   50.4000015       8.02415286E-07
   50.5200005       1.10229280E-06
   50.6399994       1.36199287E-06
   50.7599983       1.57022521E-06
   50.8800011       1.71844329E-06
   51.0000000       1.80114444E-06
   51.1199989       1.81601990E-06
   51.2400017       1.76395133E-06
   51.3600006       1.64885830E-06
   51.4799995       1.47740479E-06
   51.5999985       1.25857707E-06
   51.7200012       1.00315197E-06
   51.8400002       7.23080916E-07
   51.9599991       4.30820421E-07
   52.0800018       1.38647039E-07
   52.2000008      -1.42003046E-07
   52.3199997      -4.01126869E-07
   52.4399986      -6.30638567E-07
   52.5600014      -8.24709559E-07
   52.6800003      -9.79937568E-07
   52.7999992      -1.09533039E-06
   52.9199982      -1.17210470E-06
   53.0400009      -1.21331630E-06
   53.1599998      -1.22335280E-06
   53.2799988      -1.20733546E-06
   53.4000015      -1.17048307E-06
   53.5200005      -1.11750126E-06
   53.6399994      -1.05205595E-06
   53.7599983      -9.76385763E-07
   53.8800011      -8.91096136E-07
   54.0000000      -7.95162634E-07
   54.1199989      -6.86148383E-07
   54.2400017      -5.60623221E-07
   54.3600006      -4.14749167E-07
   54.4799995      -2.44978224E-07
   54.5999985      -4.87963057E-08
   54.7200012       1.74563596E-07
   54.8400002       4.23515758E-07
   54.9599991       6.93695711E-07
   55.0800018       9.77772402E-07
   55.2000008       1.26553880E-06
   55.3199997       1.54429722E-06
   55.4399986       1.79952713E-06
   55.5600014       2.01579905E-06
   55.6800003       2.17786874E-06
   55.7999992       2.27187024E-06
   55.9199982       2.28650515E-06
   56.0400009       2.21412529E-06
   56.1599998       2.05160904E-06
   56.2799988       1.80094128E-06
   56.4000015       1.46942841E-06
   56.5200005       1.06951654E-06
   56.6399994       6.18203444E-07
   56.7599983       1.36077219E-07
   56.8800011      -3.53952743E-07
   57.0000000      -8.28141822E-07
   57.1199989      -1.26349721E-06
   57.2400017      -1.63934124E-06
   57.3600006      -1.93872597E-06
   57.4799995      -2.14958413E-06
   57.5999985      -2.26552197E-06
   57.7200012      -2.28618910E-06
   57.8400002      -2.21719347E-06
   57.9599991      -2.06956861E-06
   58.0800018      -1.85883096E-06
   58.2000008      -1.60370587E-06
   58.3199997      -1.32461537E-06
   58.4399986      -1.04205037E-06
   58.5600014      -7.74950934E-07
   58.6800003      -5.39222526E-07
   58.7999992      -3.46503725E-07
   58.9199982      -2.03283918E-07
   59.0400009      -1.10444880E-07
   59.1599998      -6.32671018E-08
   59.2799988      -5.19093533E-08
   59.4000015      -6.23314662E-08
   59.5200005      -7.75977114E-08
   59.6399994      -7.94648969E-08
   59.7599983      -5.01341759E-08
   59.8800011       2.59718078E-08
   60.0000000       1.60552787E-07
   60.1199989       3.60036921E-07
   60.2400017       6.24575989E-07
   60.3600006       9.47528974E-07
   60.4799995       1.31549507E-06
   60.5999985       1.70891576E-06
   60.7200012       2.10321741E-06
   60.8400002       2.47041612E-06
   60.9599991       2.78107359E-06
   61.0800018       3.00645002E-06
   61.2000008       3.12068869E-06
   61.3199997       3.10286146E-06
   61.4399986       2.93871085E-06
   61.5600014       2.62195272E-06
   61.6800003       2.15504542E-06
   61.7999992       1.54936299E-06
   61.9199982       8.24774247E-07
   62.0400009       8.66037819E-09
   62.1599998      -8.65542802E-07
   62.2799988      -1.76016920E-06
   62.4000015      -2.63538277E-06
   62.5200005      -3.45133208E-06
   62.6399994      -4.17026649E-06
   62.7599983      -4.75849311E-06
   62.8800011      -5.18806792E-06
   63.0000000      -5.43814758E-06
   63.1199989      -5.49594779E-06
   63.2400017      -5.35727349E-06
   63.3600006      -5.02661624E-06
   63.4799995      -4.51682672E-06
   63.5999985      -3.84838768E-06
   63.7200012      -3.04832929E-06
   63.8400002      -2.14883698E-06
   63.9599991      -1.18562411E-06
   64.0800018      -1.96149557E-07
   64.1999969       7.82229506E-07
   64.3199997       1.71406475E-06
   64.4400024       2.56747944E-06
   64.5599976       3.31558385E-06
   64.6800003       3.93755499E-06
   64.8000031       4.41930479E-06
   64.9199982       4.75370098E-06
   65.0400009       4.94032474E-06
   65.1600037       4.98480676E-06
   65.2799988       4.89779495E-06
   65.4000015       4.69366341E-06
   65.5199966       4.38908228E-06
   65.6399994       4.00158387E-06
   65.7600021       3.54825193E-06
   65.8799973       3.04467062E-06
   66.0000000       2.50420499E-06
   66.1200027       1.93767892E-06
   66.2399979       1.35346170E-06
   66.3600006       7.57926728E-07
   66.4800034       1.56211343E-07
   66.5999985      -4.46832701E-07
   66.7200012      -1.04562889E-06
   66.8399963      -1.63294817E-06
   66.9599991      -2.19920116E-06
   67.0800018      -2.73206570E-06
   67.1999969      -3.21653442E-06
   67.3199997      -3.63542199E-06
   67.4400024      -3.97031909E-06
   67.5599976      -4.20293145E-06
   67.6800003      -4.31668150E-06
   67.8000031      -4.29842794E-06
   67.9199982      -4.14011856E-06
   68.0400009      -3.84017812E-06
   68.1600037      -3.40447400E-06
   68.2799988      -2.84669682E-06
   68.4000015      -2.18808395E-06
   68.5199966      -1.45645004E-06
   68.6399994      -6.84582346E-07
   68.7600021       9.18806364E-08
   68.8799973       8.36902814E-07
   69.0000000       1.51660993E-06
   69.1200027       2.10170924E-06
   69.2399979       2.56953240E-06
   69.3600006       2.90550361E-06
   69.4800034       3.10388896E-06
   69.5999985       3.16776618E-06
   69.7200012       3.10823475E-06
   69.8399963       2.94296046E-06
   69.9599991       2.69423026E-06
   70.0800018       2.38672351E-06
   70.1999969       2.04524326E-06
   70.3199997       1.69262910E-06
   70.4400024       1.34805509E-06
   70.5599976       1.02585443E-06
   70.6800003       7.34950902E-07
   70.8000031       4.78907396E-07
   70.9199982       2.56529773E-07
   71.0400009       6.29145660E-08
   71.1600037      -1.09215719E-07
   71.2799988      -2.68062877E-07
   71.4000015      -4.21362188E-07
   71.5199966      -5.75203615E-07
   71.6399994      -7.33182162E-07
   71.7600021      -8.95950052E-07
   71.8799973      -1.06118955E-06
   72.0000000      -1.22397716E-06
   72.1200027      -1.37746486E-06
   72.2399979      -1.51377014E-06
   72.3600006      -1.62494962E-06
   72.4800034      -1.70392354E-06
   72.5999985      -1.74523700E-06
   72.7200012      -1.74556612E-06