  -30.0000000       0.00000000    
  -29.8799992       0.00000000    
  -29.7600002       0.00000000    
  -29.6399994       0.00000000    
  -29.5200005       0.00000000    
  -29.3999996       0.00000000    
  -29.2800007       0.00000000    
  -29.1599998       0.00000000    
  -29.0400009      -1.01975132E-30
  -28.9200001      -7.05343480E-30
  -28.7999992      -5.21728479E-30
  -28.6800003       1.47217399E-28
  -28.5599995       9.38430840E-28
  -28.4400005       3.05405824E-27
  -28.3199997       5.62307873E-27
  -28.2000008       2.25459278E-27
  -28.0799999      -2.06219919E-26
  -27.9599991      -6.98210803E-26
  -27.8400002      -1.04023464E-25
  -27.7199993       8.68251975E-27
  -27.6000004       4.26204488E-25
  -27.4799995       1.00433077E-24
  -27.3600006       7.23450285E-25
  -27.2399998      -2.54649408E-24
  -27.1200008      -1.06227063E-23
  -27.0000000      -2.06706596E-23
  -26.8799992      -1.90440142E-23
  -26.7600002       2.04156761E-23
  -26.6399994       1.22127949E-22
  -26.5200005       2.69345361E-22
  -26.3999996       3.49108033E-22
  -26.2800007       1.27386483E-22
  -26.1599998      -6.65761849E-22
  -26.0400009      -2.07353904E-21
  -25.9200001      -3.51213052E-21
  -25.7999992      -3.47924686E-21
  -25.6800003       1.73854253E-22
  -25.5599995       8.95578433E-21
  -25.4400005       2.14392532E-20
  -25.3199997       3.09326840E-20
  -25.2000008       2.52226691E-20
  -25.0799999      -9.09065839E-21
  -24.9599991      -7.65099286E-20
  -24.8400002      -1.59352196E-19
  -24.7199993      -2.08915863E-19
  -24.6000004      -1.52410742E-19
  -24.4799995       7.50327003E-20
  -24.3600006       4.74817957E-19
  -24.2399998       9.26136643E-19
  -24.1200008       1.16353014E-18
  -24.0000000       8.36309171E-19
  -23.8799992      -3.25788910E-19
  -23.7600002      -2.26982351E-18
  -23.6399994      -4.40140901E-18
  -23.5200005      -5.54928093E-18
  -23.3999996      -4.26438779E-18
  -23.2800007       5.01163194E-19
  -23.1599998       8.49271215E-18
  -23.0400009       1.74204485E-17
  -22.9200001       2.29298320E-17
  -22.7999992       1.97242689E-17
  -22.6800003       3.89705342E-18
  -22.5599995      -2.41143084E-17
  -22.4400005      -5.72067061E-17
  -22.3199997      -8.15137525E-17
  -22.2000008      -7.97739269E-17
  -22.0799999      -3.82229143E-17
  -21.9599991       4.47241900E-17
  -21.8400002       1.51485913E-16
  -21.7199993       2.44295102E-16
  -21.6000004       2.73416703E-16
  -21.4799995       1.94809822E-16
  -21.3600006      -7.02074177E-18
  -21.2399998      -2.99488986E-16
  -21.1200008      -5.96100707E-16
  -21.0000000      -7.72450055E-16
  -20.8799992      -7.05233332E-16
  -20.7600002      -3.25488557E-16
  -20.6399994       3.32225565E-16
  -20.5200005       1.10745894E-15
  -20.3999996       1.73683079E-15
  -20.2800007       1.92709016E-15
  -20.1599998       1.46302569E-15
  -20.0400009       3.15745560E-16
  -19.9200001      -1.29295609E-15
  -19.7999992      -2.90795728E-15
  -19.6800003      -3.95361607E-15
  -19.5599995      -3.92007060E-15
  -19.4400005      -2.56630231E-15
  -19.3199997      -6.43605147E-17
  -19.2000008       2.98250825E-15
  -19.0799999       5.67764829E-15
  -18.9599991       7.09819327E-15
  -18.8400002       6.61020192E-15
  -18.7199993       4.11983993E-15
  -18.6000004       1.59296947E-16
  -18.4799995      -4.24085002E-15
  -18.3600006      -7.86234701E-15
  -18.2399998      -9.68812568E-15
  -18.1200008      -9.22648256E-15
  -18.0000000      -6.64643714E-15
  -17.8799992      -2.67283682E-15
  -17.7600002       1.71071602E-15
  -17.6399994       5.61909163E-15
  -17.5200005       8.52283027E-15
  -17.3999996       1.02910082E-14
  -17.2800007       1.10110692E-14
  -17.1599998       1.06965591E-14
  -17.0400009       9.06881670E-15
  -16.9200001       5.58408376E-15
  -16.7999992      -2.34521347E-16
  -16.6800003      -8.26948102E-15
  -16.5599995      -1.73443379E-14
  -16.4400005      -2.51283894E-14
  -16.3199997      -2.86155614E-14
  -16.2000008      -2.51482540E-14
  -16.0799999      -1.36747794E-14
  -15.9600000       4.27519975E-15
  -15.8400002       2.44235072E-14
  -15.7200003       4.06793367E-14
  -15.6000004       4.70531275E-14
  -15.4799995       3.99661959E-14
  -15.3599997       2.00769136E-14
  -15.2399998      -7.22928983E-15
  -15.1199999      -3.31394322E-14
  -15.0000000      -4.82885047E-14
  -14.8800001      -4.63049907E-14
  -14.7600002      -2.66942484E-14
  -14.6400003       4.20710846E-15
  -14.5200005       3.48679046E-14
  -14.3999996       5.24844755E-14
  -14.2799997       4.79082546E-14
  -14.1599998       1.97274685E-14
  -14.0400000      -2.42261977E-14
  -13.9200001      -6.88274782E-14
  -13.8000002      -9.66453886E-14
  -13.6800003      -9.42952246E-14
  -13.5600004      -5.77984926E-14
  -13.4399996       5.17879671E-15
  -13.3199997       7.72315764E-14
  -13.1999998       1.36703989E-13
  -13.0799999       1.64784866E-13
  -12.9600000       1.51592999E-13
  -12.8400002       9.90640065E-14
  -12.7200003       1.97807469E-14
  -12.6000004      -6.74596758E-14
  -12.4799995      -1.43320387E-13
  -12.3599997      -1.92569769E-13
  -12.2399998      -2.06248227E-13
  -12.1199999      -1.81363212E-13
  -12.0000000      -1.19431727E-13
  -11.8800001      -2.56378306E-14
  -11.7600002       9.03312595E-14
  -11.6400003       2.12216570E-13
  -11.5200005       3.15807900E-13
  -11.3999996       3.70684088E-13
  -11.2799997       3.46534108E-13
  -11.1599998       2.23329005E-13
  -11.0400000       2.17003340E-15
  -10.9200001      -2.87758668E-13
  -10.8000002      -5.90129128E-13
  -10.6800003      -8.31688125E-13
  -10.5600004      -9.39479397E-13
  -10.4399996      -8.59742724E-13
  -10.3199997      -5.72213880E-13
  -10.1999998      -9.53822118E-14
  -10.0799999       5.17888304E-13
  -9.96000004       1.19085189E-12
  -9.84000015       1.83374973E-12
  -9.72000027       2.35026408E-12
  -9.60000038       2.63869894E-12
  -9.47999954       2.59206502E-12
  -9.35999966       2.10460165E-12
  -9.23999977       1.09163991E-12
  -9.11999989      -4.75650227E-13
  -9.00000000      -2.52747541E-12
  -8.88000011      -4.85951730E-12
  -8.76000023      -7.12241550E-12
  -8.64000034      -8.85161996E-12
  -8.52000046      -9.54180224E-12
  -8.39999962      -8.75505137E-12
  -8.27999973      -6.23811549E-12
  -8.15999985      -2.01657267E-12
  -8.03999996       3.56329289E-12
  -7.92000008       9.86106075E-12
  -7.80000019       1.60337715E-11
  -7.67999983       2.11698176E-11
  -7.55999994       2.44301888E-11
  -7.44000006       2.51619871E-11
  -7.32000017       2.29612683E-11
  -7.19999981       1.76828170E-11
  -7.07999992       9.41523942E-12
  -6.96000004      -1.54733431E-12
  -6.84000015      -1.47068000E-11
  -6.71999979      -2.93217881E-11
  -6.59999990      -4.43390082E-11
  -6.48000002      -5.83319018E-11
  -6.36000013      -6.94966376E-11
  -6.23999977      -7.57485255E-11
  -6.11999989      -7.49334067E-11
  -6.00000000      -6.51257034E-11
  -5.88000011      -4.49425011E-11
  -5.76000023      -1.37788149E-11
  -5.63999987       2.81235417E-11
  -5.51999998       7.98183256E-11
  -5.40000010       1.39985482E-10
  -5.28000021       2.07356438E-10
  -5.15999985       2.81094065E-10
  -5.03999996       3.60987878E-10
  -4.92000008       4.47379217E-10
  -4.80000019       5.40826051E-10
  -4.67999983       6.41621145E-10
  -4.55999994       7.49346696E-10
  -4.44000006       8.62657057E-10
  -4.32000017       9.79408554E-10
  -4.19999981       1.09712761E-09
  -4.07999992       1.21367105E-09
  -3.96000004       1.32783684E-09
  -3.83999991       1.43967849E-09
  -3.72000003       1.55037738E-09
  -3.59999990       1.66169900E-09
  -3.48000002       1.77523718E-09
  -3.35999990       1.89176586E-09
  -3.24000001       2.01101247E-09
  -3.11999989       2.13201523E-09
  -3.00000000       2.25400387E-09
  -2.88000011       2.37750797E-09
  -2.75999999       2.50525578E-09
  -2.64000010       2.64246203E-09
  -2.51999998       2.79628831E-09
  -2.40000010       2.97455927E-09
  -2.27999997       3.18411542E-09
  -2.16000009       3.42933526E-09
  -2.03999996       3.71134457E-09
  -1.91999996       4.02818534E-09
  -1.79999995       4.37588499E-09
  -1.67999995       4.75002970E-09
  -1.55999994       5.14727105E-09
  -1.44000006       5.56621949E-09
  -1.32000005       6.00744299E-09
  -1.20000005       6.47264864E-09
  -1.08000004       6.96345293E-09
 -0.959999979       7.48032747E-09
 -0.839999974       8.02223354E-09
 -0.720000029       8.58719762E-09
 -0.600000024       9.17367782E-09
 -0.479999989       9.78225145E-09
 -0.360000014       1.04169979E-08
 -0.239999995       1.10860068E-08
 -0.119999997       1.18007906E-08
  -1.11022302E-15   1.25747111E-08
  0.119999997       1.34209213E-08
  0.239999995       1.43504417E-08
  0.360000014       1.53709543E-08
  0.479999989       1.64866059E-08
  0.600000024       1.76987527E-08
  0.720000029       1.90073113E-08
  0.839999974       2.04121875E-08
  0.959999979       2.19143281E-08
   1.08000004       2.35161526E-08
   1.20000005       2.52213983E-08
   1.32000005       2.70346092E-08
   1.44000006       2.89606117E-08
   1.55999994       3.10042303E-08
   1.67999995       3.31703305E-08
   1.79999995       3.54640797E-08
   1.91999996       3.78912581E-08
   2.03999996       4.04582998E-08
   2.16000009       4.31721112E-08
   2.27999997       4.60396308E-08
   2.40000010       4.90674843E-08
   2.51999998       5.22619175E-08
   2.64000010       5.56292399E-08
   2.75999999       5.91767702E-08
   2.88000011       6.29139336E-08
   3.00000000       6.68531825E-08
   3.11999989       7.10102128E-08
   3.24000001       7.54032783E-08
   3.35999990       8.00515494E-08
   3.48000002       8.49730100E-08
   3.59999990       9.01825388E-08
   3.72000003       9.56908508E-08
   3.83999991       1.01504916E-07
   3.96000004       1.07629802E-07
   4.07999992       1.14071703E-07
   4.19999981       1.20840937E-07
   4.32000017       1.27954195E-07
   4.44000006       1.35434732E-07
   4.55999994       1.43310587E-07
   4.67999983       1.51610820E-07
   4.80000019       1.60361154E-07
   4.92000008       1.69580403E-07
   5.03999996       1.79279070E-07
   5.15999985       1.89460906E-07
   5.28000021       2.00127204E-07
   5.40000010       2.11282796E-07
   5.51999998       2.22941551E-07
   5.63999987       2.35129860E-07
   5.76000023       2.47886675E-07
   5.88000011       2.61259714E-07
   6.00000000       2.75299158E-07
   6.11999989       2.90050735E-07
   6.23999977       3.05549975E-07
   6.36000013       3.21819954E-07
   6.48000002       3.38872809E-07
   6.59999990       3.56714395E-07
   6.71999979       3.75350510E-07
   6.84000015       3.94792721E-07
   6.96000004       4.15061891E-07
   7.07999992       4.36188571E-07
   7.19999981       4.58210877E-07
   7.32000017       4.81170559E-07
   7.44000006       5.05109597E-07
   7.55999994       5.30067723E-07
   7.67999983       5.56082284E-07
   7.80000019       5.83189035E-07
   7.92000008       6.11423843E-07
   8.03999996       6.40823714E-07
   8.15999985       6.71426164E-07
   8.27999973       7.03267460E-07
   8.39999962       7.36380912E-07
   8.52000046       7.70795737E-07
   8.64000034       8.06537741E-07
   8.76000023       8.43631938E-07
   8.88000011       8.82106576E-07
   9.00000000       9.21997184E-07
   9.11999989       9.63348725E-07
   9.23999977       1.00621514E-06
   9.35999966       1.05065601E-06
   9.47999954       1.09673124E-06
   9.60000038       1.14449506E-06
   9.72000027       1.19399215E-06
   9.84000015       1.24525570E-06
   9.96000004       1.29830948E-06
   10.0799999       1.35317316E-06
   10.1999998       1.40986799E-06
   10.3199997       1.46842262E-06
   10.4399996       1.52887571E-06
   10.5600004       1.59127706E-06
   10.6800003       1.65568372E-06
   10.8000002       1.72215516E-06
   10.9200001       1.79074675E-06
   11.0400000       1.86150555E-06
   11.1599998       1.93446704E-06
   11.2799997       2.00965678E-06
   11.3999996       2.08709298E-06
   11.5200005       2.16679291E-06
   11.6400003       2.24877817E-06
   11.7600002       2.33307992E-06
   11.8800001       2.41973839E-06
   12.0000000       2.50880362E-06
   12.1199999       2.60032925E-06
   12.2399998       2.69436850E-06
   12.3599997       2.79096548E-06
   12.4799995       2.89015384E-06
   12.6000004       2.99195381E-06
   12.7200003       3.09637198E-06
   12.8400002       3.20340837E-06
   12.9600000       3.31306046E-06
   13.0799999       3.42532894E-06
   13.1999998       3.54022291E-06
   13.3199997       3.65776305E-06
   13.4399996       3.77798096E-06
   13.5600004       3.90091691E-06
   13.6800003       4.02661544E-06
   13.8000002       4.15512022E-06
   13.9200001       4.28646808E-06
   14.0400000       4.42068631E-06
   14.1599998       4.55779036E-06
   14.2799997       4.69778433E-06
   14.3999996       4.84066504E-06
   14.5200005       4.98642339E-06
   14.6400003       5.13505029E-06
   14.7600002       5.28654164E-06
   14.8800001       5.44089880E-06
   15.0000000       5.59813134E-06
   15.1199999       5.75825516E-06
   15.2399998       5.92128936E-06
   15.3599997       6.08725168E-06
   15.4799995       6.25615394E-06
   15.6000004       6.42799978E-06
   15.7200003       6.60277783E-06
   15.8400002       6.78046445E-06
   15.9600000       6.96102461E-06
   16.0799999       7.14441421E-06
   16.2000008       7.33059051E-06
   16.3199997       7.51951575E-06
   16.4400005       7.71116265E-06
   16.5599995       7.90551621E-06
   16.6800003       8.10257188E-06
   16.7999992       8.30233057E-06
   16.9200001       8.50478864E-06
   17.0400009       8.70993699E-06
   17.1599998       8.91775471E-06
   17.2800007       9.12820815E-06
   17.3999996       9.34125364E-06
   17.5200005       9.55684209E-06
   17.6399994       9.77492255E-06
   17.7600002       9.99544864E-06
   17.8799992       1.02183740E-05
   18.0000000       1.04436585E-05
   18.1200008       1.06712614E-05
   18.2399998       1.09011416E-05
   18.3600006       1.11332629E-05
   18.4799995       1.13675860E-05
   18.6000004       1.16040819E-05
   18.7199993       1.18427206E-05
   18.8400002       1.20834738E-05
   18.9599991       1.23263135E-05
   19.0799999       1.25712004E-05
   19.2000008       1.28180873E-05
   19.3199997       1.30669205E-05
   19.4400005       1.33176372E-05
   19.5599995       1.35701757E-05
   19.6800003       1.38244795E-05
   19.7999992       1.40805032E-05
   19.9200001       1.43382131E-05
   20.0400009       1.45975855E-05
   20.1599998       1.48585959E-05
   20.2800007       1.51212207E-05
   20.3999996       1.53854253E-05
   20.5200005       1.56511705E-05
   20.6399994       1.59184037E-05
   20.7600002       1.61870739E-05
   20.8799992       1.64571211E-05
   21.0000000       1.67284943E-05
   21.1200008       1.70011463E-05
   21.2399998       1.72750297E-05
   21.3600006       1.75501027E-05
   21.4799995       1.78263181E-05
   21.6000004       1.81036285E-05
   21.7199993       1.83819830E-05
   21.8400002       1.86613306E-05
   21.9599991       1.89416241E-05
   22.0799999       1.92228035E-05
   22.2000008       1.95048178E-05
   22.3199997       1.97876070E-05
   22.4400005       2.00711038E-05
   22.5599995       2.03552408E-05
   22.6800003       2.06399400E-05
   22.7999992       2.09251284E-05
   22.9200001       2.12107370E-05
   23.0400009       2.14967022E-05
   23.1599998       2.17829675E-05
   23.2800007       2.20694692E-05
   23.3999996       2.23561401E-05
   23.5200005       2.26428929E-05
   23.6399994       2.29296311E-05
   23.7600002       2.32162365E-05
   23.8799992       2.35025946E-05
   24.0000000       2.37885906E-05
   24.1200008       2.40741301E-05
   24.2399998       2.43591276E-05
   24.3600006       2.46435084E-05
   24.4799995       2.49271943E-05
   24.6000004       2.52100872E-05
   24.7199993       2.54920560E-05
   24.8400002       2.57729389E-05
   24.9599991       2.60525412E-05
   25.0799999       2.63306501E-05
   25.2000008       2.66070419E-05
   25.3199997       2.68814929E-05
   25.4400005       2.71537865E-05
   25.5599995       2.74237082E-05
   25.6800003       2.76910414E-05
   25.7999992       2.79555625E-05
   25.9200001       2.82170222E-05
   26.0400009       2.84751586E-05
   26.1599998       2.87296916E-05
   26.2800007       2.89803193E-05
   26.3999996       2.92267341E-05
   26.5200005       2.94686124E-05
   26.6399994       2.97056195E-05
   26.7600002       2.99374151E-05
   26.8799992       3.01636483E-05
   27.0000000       3.03839461E-05
   27.1200008       3.05979265E-05
   27.2399998       3.08052004E-05
   27.3600006       3.10053474E-05
   27.4799995       3.11979384E-05
   27.6000004       3.13824967E-05
   27.7199993       3.15585385E-05
   27.8400002       3.17255253E-05
   27.9599991       3.18829043E-05
   28.0799999       3.20300787E-05
   28.2000008       3.21664374E-05
   28.3199997       3.22913438E-05
   28.4400005       3.24041721E-05
   28.5599995       3.25042638E-05
   28.6800003       3.25909568E-05
   28.7999992       3.26635673E-05
   28.9200001       3.27213929E-05
   29.0400009       3.27636917E-05
   29.1599998       3.27896778E-05
   29.2800007       3.27985508E-05
   29.3999996       3.27894631E-05
   29.5200005       3.27615562E-05
   29.6399994       3.27139423E-05
   29.7600002       3.26457266E-05
   29.8799992       3.25559813E-05
   30.0000000       3.24437642E-05
   30.1200008       3.23080894E-05
   30.2399998       3.21479602E-05
   30.3600006       3.19623432E-05
   30.4799995       3.17502017E-05
   30.6000004       3.15104880E-05
   30.7199993       3.12421544E-05
   30.8400002       3.09441239E-05
   30.9599991       3.06153233E-05
   31.0799999       3.02546377E-05
   31.2000008       2.98609230E-05
   31.3199997       2.94330021E-05
   31.4400005       2.89696673E-05
   31.5599995       2.84696798E-05
   31.6800003       2.79317919E-05
   31.7999992       2.73547466E-05
   31.9200001       2.67372743E-05
   32.0400009       2.60781053E-05
   32.1599998       2.53759499E-05
   32.2799988       2.46295021E-05
   32.4000015       2.38374359E-05
   32.5200005       2.29983943E-05
   32.6399994       2.21110167E-05
   32.7599983       2.11739443E-05
   32.8800011       2.01858384E-05
   33.0000000       1.91453728E-05
   33.1199989       1.80512379E-05
   33.2400017       1.69021150E-05
   33.3600006       1.56966780E-05
   33.4799995       1.44335845E-05
   33.5999985       1.31114730E-05
   33.7200012       1.17289837E-05
   33.8400002       1.02847689E-05
   33.9599991       8.77752245E-06
   34.0800018       7.20597927E-06
   34.2000008       5.56892110E-06
   34.3199997       3.86516240E-06
   34.4399986       2.09354630E-06
   34.5600014       2.52930221E-07
   34.6800003      -1.65780045E-06
   34.7999992      -3.63973299E-06
   34.9199982      -5.69392023E-06
   35.0400009      -7.82137522E-06
   35.1599998      -1.00230736E-05
   35.2799988      -1.22999536E-05
   35.4000015      -1.46529110E-05
   35.5200005      -1.70828062E-05
   35.6399994      -1.95904522E-05
   35.7599983      -2.21766059E-05
   35.8800011      -2.48419601E-05
   36.0000000      -2.75871189E-05
   36.1199989      -3.04126170E-05
   36.2400017      -3.33188909E-05
   36.3600006      -3.63063082E-05
   36.4799995      -3.93751689E-05
   36.5999985      -4.25257385E-05
   36.7200012      -4.57582246E-05
   36.8400002      -4.90727689E-05
   36.9599991      -5.24694478E-05
   37.0800018      -5.59482287E-05
   37.2000008      -5.95089623E-05
   37.3199997      -6.31513831E-05
   37.4399986      -6.68750727E-05
   37.5600014      -7.06795108E-05
   37.6800003      -7.45640646E-05
   37.7999992      -7.85280135E-05
   37.9199982      -8.25705210E-05
   38.0400009      -8.66906776E-05
   38.1599998      -9.08874790E-05
   38.2799988      -9.51598049E-05
   38.4000015      -9.95064620E-05
   38.5200005      -1.03926126E-04
   38.6399994      -1.08417400E-04
   38.7599983      -1.12978756E-04
   38.8800011      -1.17608542E-04
   39.0000000      -1.22304977E-04
   39.1199989      -1.27066072E-04
   39.2400017      -1.31889727E-04
   39.3600006      -1.36773640E-04
   39.4799995      -1.41715413E-04
   39.5999985      -1.46712482E-04
   39.7200012      -1.51762244E-04
   39.8400002      -1.56861963E-04
   39.9599991      -1.62008844E-04
   40.0800018      -1.67199993E-04
   40.2000008      -1.72432439E-04
   40.3199997      -1.77703027E-04
   40.4399986      -1.83008495E-04
   40.5600014      -1.88345410E-04
   40.6800003      -1.93710221E-04
   40.7999992      -1.99099217E-04
   40.9199982      -2.04508600E-04
   41.0400009      -2.09934398E-04
   41.1599998      -2.15372595E-04
   41.2799988      -2.20819042E-04
   41.4000015      -2.26269491E-04
   41.5200005      -2.31719619E-04
   41.6399994      -2.37165033E-04
   41.7599983      -2.42601236E-04
   41.8800011      -2.48023716E-04
   42.0000000      -2.53427919E-04
   42.1199989      -2.58809217E-04
   42.2400017      -2.64162896E-04
   42.3600006      -2.69484153E-04
   42.4799995      -2.74768099E-04
   42.5999985      -2.80009554E-04
   42.7200012      -2.85203423E-04
   42.8400002      -2.90344469E-04
   42.9599991      -2.95427482E-04
   43.0800018      -3.00447253E-04
   43.2000008      -3.05398571E-04
   43.3199997      -3.10276402E-04
   43.4399986      -3.15075566E-04
   43.5600014      -3.19791085E-04
   43.6800003      -3.24417866E-04
   43.7999992      -3.28950788E-04
   43.9199982      -3.33384698E-04
   44.0400009      -3.37714504E-04
   44.1599998      -3.41935054E-04
   44.2799988      -3.46041314E-04
   44.4000015      -3.50028218E-04
   44.5200005      -3.53890762E-04
   44.6399994      -3.57624056E-04
   44.7599983      -3.61223269E-04
   44.8800011      -3.64683714E-04
   45.0000000      -3.68000794E-04
   45.1199989      -3.71169910E-04
   45.2400017      -3.74186697E-04
   45.3600006      -3.77046905E-04
   45.4799995      -3.79746401E-04
   45.5999985      -3.82281112E-04
   45.7200012      -3.84647225E-04
   45.8400002      -3.86841013E-04
   45.9599991      -3.88858898E-04
   46.0800018      -3.90697445E-04
   46.2000008      -3.92353424E-04
   46.3199997      -3.93823750E-04
   46.4399986      -3.95105570E-04
   46.5600014      -3.96196148E-04
   46.6800003      -3.97092983E-04
   46.7999992      -3.97793658E-04
   46.9199982      -3.98296106E-04
   47.0400009      -3.98598320E-04
   47.1599998      -3.98698612E-04
   47.2799988      -3.98595585E-04
   47.4000015      -3.98288073E-04
   47.5200005      -3.97775089E-04
   47.6399994      -3.97055992E-04
   47.7599983      -3.96130432E-04
   47.8800011      -3.94998089E-04
   48.0000000      -3.93659022E-04
   48.1199989      -3.92113492E-04
   48.2400017      -3.90361878E-04
   48.3600006      -3.88404907E-04
   48.4799995      -3.86243453E-04
   48.5999985      -3.83878738E-04
   48.7200012      -3.81312129E-04
   48.8400002      -3.78545403E-04
   48.9599991      -3.75580537E-04
   49.0800018      -3.72419745E-04
   49.2000008      -3.69065703E-04
   49.3199997      -3.65521089E-04
   49.4399986      -3.61789018E-04
   49.5600014      -3.57872661E-04
   49.6800003      -3.53775569E-04
   49.7999992      -3.49501410E-04
   49.9199982      -3.45054053E-04
   50.0400009      -3.40437633E-04
   50.1599998      -3.35656543E-04
   50.2799988      -3.30715382E-04
   50.4000015      -3.25619010E-04
   50.5200005      -3.20372405E-04
   50.6399994      -3.14980745E-04
   50.7599983      -3.09449388E-04
   50.8800011      -3.03783861E-04
   51.0000000      -2.97989784E-04
   51.1199989      -2.92072917E-04
   51.2400017      -2.86039343E-04
   51.3600006      -2.79895263E-04
   51.4799995      -2.73646991E-04
   51.5999985      -2.67301075E-04
   51.7200012      -2.60864181E-04
   51.8400002      -2.54343031E-04
   51.9599991      -2.47744465E-04
   52.0800018      -2.41075337E-04
   52.2000008      -2.34342559E-04
   52.3199997      -2.27553071E-04
   52.4399986      -2.20713875E-04
   52.5600014      -2.13831911E-04
   52.6800003      -2.06914207E-04
   52.7999992      -1.99967777E-04
   52.9199982      -1.92999680E-04
   53.0400009      -1.86017016E-04
   53.1599998      -1.79026931E-04
   53.2799988      -1.72036613E-04
   53.4000015      -1.65053221E-04
   53.5200005      -1.58083916E-04
   53.6399994      -1.51135697E-04
   53.7599983      -1.44215475E-04
   53.8800011      -1.37330018E-04
   54.0000000      -1.30485889E-04
   54.1199989      -1.23689606E-04
   54.2400017      -1.16947551E-04
   54.3600006      -1.10266017E-04
   54.4799995      -1.03651255E-04
   54.5999985      -9.71093905E-05
   54.7200012      -9.06464120E-05
   54.8400002      -8.42681256E-05
   54.9599991      -7.79801194E-05
   55.0800018      -7.17877847E-05
   55.2000008      -6.56962729E-05
   55.3199997      -5.97105827E-05
   55.4399986      -5.38355744E-05
   55.5600014      -4.80759372E-05
   55.6800003      -4.24362115E-05
   55.7999992      -3.69207191E-05
   55.9199982      -3.15335274E-05
   56.0400009      -2.62784215E-05
   56.1599998      -2.11588776E-05
   56.2799988      -1.61780881E-05
   56.4000015      -1.13390170E-05
   56.5200005      -6.64441950E-06
   56.6399994      -2.09687687E-06
   56.7599983       2.30120759E-06
   56.8800011       6.54762607E-06
   57.0000000       1.06404268E-05
   57.1199989       1.45779477E-05
   57.2400017       1.83588363E-05
   57.3600006       2.19820540E-05
   57.4799995       2.54468123E-05
   57.5999985       2.87525490E-05
   57.7200012       3.18988859E-05
   57.8400002       3.48856374E-05
   57.9599991       3.77128054E-05
   58.0800018       4.03806371E-05
   58.2000008       4.28896419E-05
   58.3199997       4.52406202E-05
   58.4399986       4.74346270E-05
   58.5600014       4.94729575E-05
   58.6800003       5.13570849E-05
   58.7999992       5.30886391E-05
   58.9199982       5.46693882E-05
   59.0400009       5.61012639E-05
   59.1599998       5.73863981E-05
   59.2799988       5.85271409E-05
   59.4000015       5.95260681E-05
   59.5200005       6.03859553E-05
   59.6399994       6.11097639E-05
   59.7599983       6.17005571E-05
   59.8800011       6.21615036E-05
   60.0000000       6.24958338E-05
   60.1199989       6.27069167E-05
   60.2400017       6.27982154E-05
   60.3600006       6.27733752E-05
   60.4799995       6.26362162E-05
   60.5999985       6.23906744E-05
   60.7200012       6.20407809E-05
   60.8400002       6.15906247E-05
   60.9599991       6.10442876E-05
   61.0800018       6.04058368E-05
   61.2000008       5.96793434E-05
   61.3199997       5.88689218E-05
   61.4399986       5.79787265E-05
   61.5600014       5.70130032E-05
   61.6800003       5.59760520E-05
   61.7999992       5.48722055E-05
   61.9199982       5.37057895E-05
   62.0400009       5.24811148E-05
   62.1599998       5.12024453E-05
   62.2799988       4.98740010E-05
   62.4000015       4.84999764E-05
   62.5200005       4.70845371E-05
   62.6399994       4.56318121E-05
   62.7599983       4.41458978E-05
   62.8800011       4.26308179E-05
   63.0000000       4.10905304E-05
   63.1199989       3.95289062E-05
   63.2400017       3.79497214E-05
   63.3600006       3.63566760E-05
   63.4799995       3.47533896E-05
   63.5999985       3.31433948E-05
   63.7200012       3.15301440E-05
   63.8400002       2.99169878E-05
   63.9599991       2.83071440E-05
   64.0800018       2.67037140E-05
   64.1999969       2.51096772E-05
   64.3199997       2.35279022E-05
   64.4400024       2.19611538E-05
   64.5599976       2.04121097E-05
   64.6800003       1.88833528E-05
   64.8000031       1.73773678E-05
   64.9199982       1.58965267E-05
   65.0400009       1.44430714E-05
   65.1600037       1.30190983E-05
   65.2799988       1.16265637E-05
   65.4000015       1.02672839E-05
   65.5199966       8.94293589E-06
   65.6399994       7.65506502E-06
   65.7600021       6.40508597E-06
   65.8799973       5.19428431E-06
   66.0000000       4.02381784E-06
   66.1200027       2.89472473E-06
   66.2399979       1.80793279E-06
   66.3600006       7.64267782E-07
   66.4800034      -2.35539190E-07
   66.5999985      -1.19085280E-06
   66.7200012      -2.10113967E-06
   66.8399963      -2.96597909E-06
   66.9599991      -3.78507116E-06
   67.0800018      -4.55824102E-06
   67.1999969      -5.28543251E-06
   67.3199997      -5.96670179E-06
   67.4400024      -6.60219939E-06
   67.5599976      -7.19215996E-06
   67.6800003      -7.73689408E-06
   67.8000031      -8.23679056E-06
   67.9199982      -8.69231371E-06
   68.0400009      -9.10401013E-06
   68.1600037      -9.47250919E-06
   68.2799988      -9.79852030E-06
   68.4000015      -1.00828202E-05
   68.5199966      -1.03262410E-05
   68.6399994      -1.05296622E-05
   68.7600021      -1.06939979E-05
   68.8799973      -1.08202021E-05
   69.0000000      -1.09092707E-05
   69.1200027      -1.09622579E-05
   69.2399979      -1.09802768E-05
   69.3600006      -1.09645043E-05
   69.4800034      -1.09161738E-05
   69.5999985      -1.08365593E-05
   69.7200012      -1.07269543E-05
   69.8399963      -1.05886520E-05
   69.9599991      -1.04229330E-05
   70.0800018      -1.02310742E-05
   70.1999969      -1.00143479E-05
   70.3199997      -9.77403488E-06
   70.4400024      -9.51142647E-06
   70.5599976      -9.22782510E-06
   70.6800003      -8.92453227E-06
   70.8000031      -8.60284490E-06
   70.9199982      -8.26405085E-06
   71.0400009      -7.90943977E-06
   71.1600037      -7.54031271E-06
   71.2799988      -7.15799069E-06
   71.4000015      -6.76381342E-06
   71.5199966      -6.35911692E-06
   71.6399994      -5.94520725E-06
   71.7600021      -5.52332585E-06
   71.8799973      -5.09463234E-06
   72.0000000      -4.66020902E-06
   72.1200027      -4.22107860E-06
   72.2399979      -3.77824335E-06
   72.3600006      -3.33271305E-06
   72.4800034      -2.88552360E-06
   72.5999985      -2.43773070E-06
   72.7200012      -1.99038595E-06