  -30.0000000       0.00000000    
  -29.8799992       0.00000000    
  -29.7600002       0.00000000    
  -29.6399994       0.00000000    
  -29.5200005       0.00000000    
  -29.3999996       0.00000000    
  -29.2800007       4.44211613E-43
  -29.1599998       8.78474007E-42
  -29.0400009       5.05462369E-41
  -28.9200001       1.13300586E-40
  -28.7999992      -1.10254163E-40
  -28.6800003      -1.45191196E-39
  -28.5599995      -4.16336704E-39
  -28.4400005      -4.06520608E-39
  -28.3199997       1.03546890E-38
  -28.2000008       4.45809738E-38
  -28.0799999       4.95420328E-38
  -27.9599991      -1.42926401E-37
  -27.8400002      -7.82770344E-37
  -27.7199993      -1.85464331E-36
  -27.6000004      -2.33060015E-36
  -27.4799995       5.33369441E-37
  -27.3600006       1.05721647E-35
  -27.2399998       2.90923516E-35
  -27.1200008       4.79528542E-35
  -27.0000000       4.29088384E-35
  -26.8799992      -2.41999217E-35
  -26.7600002      -1.84073220E-34
  -26.6399994      -4.16412491E-34
  -26.5200005      -6.00349301E-34
  -26.3999996      -4.99289021E-34
  -26.2800007       1.67608643E-34
  -26.1599998       1.53826366E-33
  -26.0400009       3.34494338E-33
  -25.9200001       4.71277983E-33
  -25.7999992       4.22595913E-33
  -25.6800003       4.37278067E-34
  -25.5599995      -7.18322484E-33
  -25.4400005      -1.71679378E-32
  -25.3199997      -2.54458145E-32
  -25.2000008      -2.59119274E-32
  -25.0799999      -1.25848161E-32
  -24.9599991       1.69416801E-32
  -24.8400002       5.79642259E-32
  -24.7199993       9.69658178E-32
  -24.6000004       1.13629843E-31
  -24.4799995       8.73892652E-32
  -24.3600006       7.33231279E-33
  -24.2399998      -1.17959071E-31
  -24.1200008      -2.55478604E-31
  -24.0000000      -3.52155679E-31
  -23.8799992      -3.50098799E-31
  -23.7600002      -2.09767790E-31
  -23.6399994       6.65479384E-32
  -23.5200005       4.21156727E-31
  -23.3999996       7.46204049E-31
  -23.2800007       9.10996367E-31
  -23.1599998       8.06211296E-31
  -23.0400009       3.91604259E-31
  -22.9200001      -2.70514282E-31
  -22.7999992      -1.01181880E-30
  -22.6800003      -1.59206265E-30
  -22.5599995      -1.76629649E-30
  -22.4400005      -1.36921817E-30
  -22.3199997      -3.93296900E-31
  -22.2000008       9.64023575E-31
  -22.0799999       2.30461799E-30
  -21.9599991       3.09827905E-30
  -21.8400002       2.81805380E-30
  -21.7199993       1.13065733E-30
  -21.6000004      -1.88994740E-30
  -21.4799995      -5.58459536E-30
  -21.3600006      -8.65285266E-30
  -21.2399998      -9.31805306E-30
  -21.1200008      -5.78923670E-30
  -21.0000000       2.98303546E-30
  -20.8799992       1.63965084E-29
  -20.7600002       3.14374480E-29
  -20.6399994       4.25058336E-29
  -20.5200005       4.22664465E-29
  -20.3999996       2.37691458E-29
  -20.2800007      -1.63470842E-29
  -20.1599998      -7.43439773E-29
  -20.0400009      -1.36918188E-28
  -19.9200001      -1.81414319E-28
  -19.7999992      -1.80068142E-28
  -19.6800003      -1.08617116E-28
  -19.5599995       4.20546333E-29
  -19.4400005       2.54503240E-28
  -19.3199997       4.78322228E-28
  -19.2000008       6.33795089E-28
  -19.0799999       6.28987535E-28
  -18.9599991       3.89865493E-28
  -18.8400002      -1.02367040E-28
  -18.7199993      -7.78075168E-28
  -18.6000004      -1.46514446E-27
  -18.4799995      -1.90847659E-27
  -18.3600006      -1.83093037E-27
  -18.2399998      -1.03103244E-27
  -18.1200008       5.03765255E-28
  -18.0000000       2.50544419E-27
  -17.8799992       4.40141707E-27
  -17.7600002       5.39920208E-27
  -17.6399994       4.69742518E-27
  -17.5200005       1.79943178E-27
  -17.3999996      -3.14590372E-27
  -17.2800007      -9.09820707E-27
  -17.1599998      -1.41173176E-26
  -17.0400009      -1.57098506E-26
  -16.9200001      -1.15634960E-26
  -16.7999992      -5.63951769E-28
  -16.6800003       1.61733588E-26
  -16.5599995       3.46600553E-26
  -16.4400005       4.82244692E-26
  -16.3199997       4.88642385E-26
  -16.2000008       2.97919237E-26
  -16.0799999      -1.12523952E-26
  -15.9600000      -6.88565191E-26
  -15.8400002      -1.28281886E-25
  -15.7200003      -1.66679012E-25
  -15.6000004      -1.58098412E-25
  -15.4799995      -8.21898523E-26
  -15.3599997       6.50060274E-26
  -15.2399998       2.61359405E-25
  -15.1199999       4.54358243E-25
  -15.0000000       5.66539885E-25
  -14.8800001       5.13315341E-25
  -14.7600002       2.32375299E-25
  -14.6400003      -2.80990997E-25
  -14.5200005      -9.43384656E-25
  -14.3999996      -1.57172321E-24
  -14.2799997      -1.90440962E-24
  -14.1599998      -1.66328955E-24
  -14.0400000      -6.52805523E-25
  -13.9200001       1.12323903E-24
  -13.8000002       3.36325364E-24
  -13.6800003       5.43449630E-24
  -13.5600004       6.44981709E-24
  -13.4399996       5.48002344E-24
  -13.3199997       1.88859710E-24
  -13.1999998      -4.27734858E-24
  -13.0799999      -1.19599360E-23
  -12.9600000      -1.89826881E-23
  -12.8400002      -2.23120803E-23
  -12.7200003      -1.87744257E-23
  -12.6000004      -6.18639276E-24
  -12.4799995       1.53175804E-23
  -12.3599997       4.21584181E-23
  -12.2399998       6.69062910E-23
  -12.1199999       7.91067128E-23
  -12.0000000       6.76494990E-23
  -11.8800001       2.45774553E-23
  -11.7600002      -5.03477599E-23
  -11.6400003      -1.45620732E-22
  -11.5200005      -2.36253794E-22
  -11.3999996      -2.86104755E-22
  -11.2799997      -2.55460348E-22
  -11.1599998      -1.13755573E-22
  -11.0400000       1.44600867E-22
  -10.9200001       4.85446068E-22
  -10.8000002       8.26963165E-22
  -10.6800003       1.04493409E-21
  -10.5600004       9.95846799E-22
  -10.4399996       5.58557394E-22
  -10.3199997      -3.10999968E-22
  -10.1999998      -1.52487424E-21
  -10.0799999      -2.82715955E-21
  -9.96000004      -3.79912625E-21
  -9.84000015      -3.92406203E-21
  -9.72000027      -2.71891400E-21
  -9.60000038       7.97670525E-23
  -9.47999954       4.31292900E-21
  -9.35999966       9.24060345E-21
  -9.23999977       1.35042809E-20
  -9.11999989       1.52825544E-20
  -9.00000000       1.26823202E-20
  -8.88000011       4.34891782E-21
  -8.76000023      -9.80312827E-21
  -8.64000034      -2.79251813E-20
  -8.52000046      -4.58901192E-20
  -8.39999962      -5.75398596E-20
  -8.27999973      -5.57312808E-20
  -8.15999985      -3.42235154E-20
  -8.03999996       9.80583761E-21
  -7.92000008       7.31349735E-20
  -7.80000019       1.44566278E-19
  -7.67999983       2.04651321E-19
  -7.55999994       2.27959112E-19
  -7.44000006       1.88379347E-19
  -7.32000017       6.72160827E-20
  -7.19999981      -1.37176906E-19
  -7.07999992      -4.00544143E-19
  -6.96000004      -6.67832436E-19
  -6.84000015      -8.55670212E-19
  -6.71999979      -8.64937530E-19
  -6.59999990      -6.04272291E-19
  -6.48000002      -2.23648522E-20
  -6.36000013       8.56810377E-19
  -6.23999977       1.90528812E-18
  -6.11999989       2.88076608E-18
  -6.00000000       3.44632663E-18
  -5.88000011       3.22820986E-18
  -5.76000023       1.91182615E-18
  -5.63999987      -6.35173639E-19
  -5.51999998      -4.23709786E-18
  -5.40000010      -8.31783873E-18
  -5.28000021      -1.18845530E-17
  -5.15999985      -1.36268568E-17
  -5.03999996      -1.21549840E-17
  -4.92000008      -6.37039997E-18
  -4.80000019       4.07881892E-18
  -4.67999983       1.83511028E-17
  -4.55999994       3.41050702E-17
  -4.44000006       4.74840152E-17
  -4.32000017       5.35250012E-17
  -4.19999981       4.70652368E-17
  -4.07999992       2.41105679E-17
  -3.96000004      -1.65131455E-17
  -3.83999991      -7.15608705E-17
  -3.72000003      -1.32286720E-16
  -3.59999990      -1.84401918E-16
  -3.48000002      -2.09534286E-16
  -3.35999990      -1.88439486E-16
  -3.24000001      -1.05847461E-16
  -3.11999989       4.36600916E-17
  -3.00000000       2.49874031E-16
  -2.88000011       4.82862302E-16
  -2.75999999       6.92345143E-16
  -2.64000010       8.12162401E-16
  -2.51999998       7.70792518E-16
  -2.40000010       5.07710490E-16
  -2.27999997      -6.22205257E-18
  -2.16000009      -7.47901982E-16
  -2.03999996      -1.62579144E-15
  -1.91999996      -2.47438970E-15
  -1.79999995      -3.06508698E-15
  -1.67999995      -3.13729611E-15
  -1.55999994      -2.45025689E-15
  -1.44000006      -8.50964398E-16
  -1.32000005       1.65206174E-15
  -1.20000005       4.82486484E-15
  -1.08000004       8.17336734E-15
 -0.959999979       1.09576756E-14
 -0.839999974       1.22709672E-14
 -0.720000029       1.11890909E-14
 -0.600000024       6.98262749E-15
 -0.479999989      -6.34586814E-16
 -0.360000014      -1.12646463E-14
 -0.239999995      -2.36511521E-14
 -0.119999997      -3.56361160E-14
  -1.11022302E-15  -4.43067451E-14
  0.119999997      -4.63687214E-14
  0.239999995      -3.87446863E-14
  0.360000014      -1.93456599E-14
  0.479999989       1.20937069E-14
  0.600000024       5.32776710E-14
  0.720000029       9.89062754E-14
  0.839999974       1.40726813E-13
  0.959999979       1.68242021E-13
   1.08000004       1.70151247E-13
   1.20000005       1.36469964E-13
   1.32000005       6.11110283E-14
   1.44000006      -5.54582218E-14
   1.55999994      -2.04012751E-13
   1.67999995      -3.65429123E-13
   1.79999995      -5.11195144E-13
   1.91999996      -6.06008353E-13
   2.03999996      -6.12618029E-13
   2.16000009      -4.98659328E-13
   2.27999997      -2.44750401E-13
   2.40000010       1.47356831E-13
   2.51999998       6.48166200E-13
   2.64000010       1.19714677E-12
   2.75999999       1.70443087E-12
   2.88000011       2.05871062E-12
   3.00000000       2.14169719E-12
   3.11999989       1.84837562E-12
   3.24000001       1.11094098E-12
   3.35999990      -7.69833009E-14
   3.48000002      -1.64029673E-12
   3.59999990      -3.41146837E-12
   3.72000003      -5.13332432E-12
   3.83999991      -6.47899919E-12
   3.96000004      -7.09028886E-12
   4.07999992      -6.63266317E-12
   4.19999981      -4.86171346E-12
   4.32000017      -1.69238408E-12
   4.44000006       2.74048752E-12
   4.55999994       8.04329520E-12
   4.67999983       1.35590419E-11
   4.80000019       1.84068941E-11
   4.92000008       2.15707591E-11
   5.03999996       2.20346224E-11
   5.15999985       1.89537917E-11
   5.28000021       1.18425053E-11
   5.40000010       7.50677732E-13
   5.51999998      -1.36022773E-11
   5.63999987      -2.97693988E-11
   5.76000023      -4.56222352E-11
   5.88000011      -5.85192242E-11
   6.00000000      -6.55991442E-11
   6.11999989      -6.41829506E-11
   6.23999977      -5.22461518E-11
   6.36000013      -2.89038220E-11
   6.48000002       5.16503073E-12
   6.59999990       4.74342579E-11
   6.71999979       9.34658392E-11
   6.84000015       1.37124506E-10
   6.96000004       1.71104048E-10
   7.07999992       1.87757157E-10
   7.19999981       1.80173612E-10
   7.32000017       1.43401679E-10
   7.44000006       7.56636073E-11
   7.55999994      -2.06165258E-11
   7.67999983      -1.38166006E-10
   7.80000019      -2.64778865E-10
   7.92000008      -3.83932663E-10
   8.03999996      -4.76175099E-10
   8.15999985      -5.21255761E-10
   8.27999973      -5.00865960E-10
   8.39999962      -4.01736366E-10
   8.52000046      -2.18736515E-10
   8.64000034       4.24561879E-11
   8.76000023       3.63583941E-10
   8.88000011       7.13379078E-10
   9.00000000       1.04883779E-09
   9.11999989       1.31840605E-09
   9.23999977       1.46707813E-09
   9.35999966       1.44315249E-09
   9.47999954       1.20611909E-09
   9.60000038       7.34886429E-10
   9.72000027       3.53409871E-11
   9.84000015      -8.53900228E-10
   9.96000004      -1.85870319E-09
   10.0799999      -2.87063018E-09
   10.1999998      -3.75290909E-09
   10.3199997      -4.35148184E-09
   10.4399996      -4.51089255E-09
   10.5600004      -4.09412548E-09
   10.6800003      -3.00482550E-09
   10.8000002      -1.20968657E-09
   10.9200001       1.24169419E-09
   11.0400000       4.20250412E-09
   11.1599998       7.42293516E-09
   11.2799997       1.05555822E-08
   11.3999996       1.31739135E-08
   11.5200005       1.48046153E-08
   11.6400003       1.49731623E-08
   11.7600002       1.32603395E-08
   11.8800001       9.36568423E-09
   12.0000000       3.17219340E-09
   12.1199999      -5.19469934E-09
   12.2399998      -1.53217030E-08
   12.3599997      -2.64838214E-08
   12.4799995      -3.76493929E-08
   12.6000004      -4.75197695E-08
   12.7200003      -5.46069039E-08
   12.8400002      -5.73488776E-08
   12.9600000      -5.42592637E-08
   13.0799999      -4.41024035E-08
   13.1999998      -2.60820237E-08
   13.3199997      -2.71839860E-11
   13.4399996       3.34433494E-08
   13.5600004       7.27987128E-08
   13.6800003       1.15535855E-07
   13.8000002       1.58199811E-07
   13.9200001       1.96498462E-07
   14.0400000       2.25520097E-07
   14.1599998       2.40053879E-07
   14.2799997       2.35005658E-07
   14.3999996       2.05890686E-07
   14.5200005       1.49377414E-07
   14.6400003       6.38468549E-08
   14.7600002      -5.00733961E-08
   14.8800001      -1.89045636E-07
   15.0000000      -3.46675165E-07
   15.1199999      -5.13322163E-07
   15.2399998      -6.76110460E-07
   15.3599997      -8.19158117E-07
   15.4799995      -9.24045878E-07
   15.6000004      -9.70519864E-07
   15.7200003      -9.37412153E-07
   15.8400002      -8.03745081E-07
   15.9600000      -5.49966444E-07
   16.0799999      -1.59255208E-07
   16.2000008       3.81179149E-07
   16.3199997       1.07888104E-06
   16.4400005       1.93509891E-06
   16.5599995       2.94397546E-06
   16.6800003       4.09204677E-06
   16.7999992       5.35809568E-06
   16.9200001       6.71340376E-06
   17.0400009       8.12239705E-06
   17.1599998       9.54368988E-06
   17.2800007       1.09314742E-05
   17.3999996       1.22372076E-05
   17.5200005       1.34115307E-05
   17.6399994       1.44063024E-05
   17.7600002       1.51766562E-05
   17.8799992       1.56830029E-05
   18.0000000       1.58928215E-05
   18.1200008       1.57822124E-05
   18.2399998       1.53370711E-05
   18.3600006       1.45538615E-05
   18.4799995       1.34399552E-05
   18.6000004       1.20134891E-05
   18.7199993       1.03027896E-05
   18.8400002       8.34537695E-06
   18.9599991       6.18661534E-06
   19.0799999       3.87807495E-06
   19.2000008       1.47569119E-06
   19.3199997      -9.62186391E-07
   19.4400005      -3.37677056E-06
   19.5599995      -5.71075225E-06
   19.6800003      -7.91007369E-06
   19.7999992      -9.92551031E-06
   19.9200001      -1.17139953E-05
   20.0400009      -1.32396799E-05
   20.1599998      -1.44746919E-05
   20.2800007      -1.53996098E-05
   20.3999996      -1.60036561E-05
   20.5200005      -1.62846463E-05
   20.6399994      -1.62487031E-05
   20.7600002      -1.59097726E-05
   20.8799992      -1.52889970E-05
   21.0000000      -1.44139331E-05
   21.1200008      -1.33176736E-05
   21.2399998      -1.20378754E-05
   21.3600006      -1.06157158E-05
   21.4799995      -9.09478604E-06
   21.6000004      -7.51993457E-06
   21.7199993      -5.93607729E-06
   21.8400002      -4.38698453E-06
   21.9599991      -2.91407241E-06
   22.0799999      -1.55521604E-06
   22.2000008      -3.43629239E-07
   22.3199997       6.93157688E-07
   22.4400005       1.53417761E-06
   22.5599995       2.16571766E-06
   22.6800003       2.58177943E-06
   22.7999992       2.78427206E-06
   22.9200001       2.78290622E-06
   23.0400009       2.59477815E-06
   23.1599998       2.24363544E-06
   23.2800007       1.75884998E-06
   23.3999996       1.17412355E-06
   23.5200005       5.25983239E-07
   23.6399994      -1.47869883E-07
   23.7600002      -8.10279289E-07
   23.8799992      -1.42633473E-06
   24.0000000      -1.96496694E-06
   24.1200008      -2.40035320E-06
   24.2399998      -2.71305430E-06
   24.3600006      -2.89082163E-06
   24.4799995      -2.92902837E-06
   24.6000004      -2.83069812E-06
   24.7199993      -2.60613274E-06
   24.8400002      -2.27215810E-06
   24.9599991      -1.85103033E-06
   25.0799999      -1.36906931E-06
   25.2000008      -8.55094640E-07
   25.3199997      -3.38756337E-07
   25.4400005       1.51143510E-07
   25.5599995       5.88244006E-07
   25.6800003       9.50042306E-07
   25.7999992       1.21905657E-06
   25.9200001       1.38367318E-06
   26.0400009       1.43863429E-06
   26.1599998       1.38514702E-06
   26.2800007       1.23061511E-06
   26.3999996       9.88019792E-07
   26.5200005       6.74993828E-07
   26.6399994       3.12654009E-07
   26.7600002      -7.57334888E-08
   26.8799992      -4.66168473E-07
   27.0000000      -8.35326944E-07
   27.1200008      -1.16188085E-06
   27.2399998      -1.42765202E-06
   27.3600006      -1.61853734E-06
   27.4799995      -1.72515684E-06
   27.6000004      -1.74320030E-06
   27.7199993      -1.67346013E-06
   27.8400002      -1.52156804E-06
   27.9599991      -1.29746138E-06
   28.0799999      -1.01462842E-06
   28.2000008      -6.89187971E-07
   28.3199997      -3.38870478E-07
   28.4400005       1.80335764E-08
   28.5599995       3.63691470E-07
   28.6800003       6.81653717E-07
   28.7999992       9.57638690E-07
   28.9200001       1.18013952E-06
   29.0400009       1.34083336E-06
   29.1599998       1.43478462E-06
   29.2800007       1.46045170E-06
   29.3999996       1.41951637E-06
   29.5200005       1.31656464E-06
   29.6399994       1.15865862E-06
   29.7600002       9.54836196E-07
   29.8799992       7.15580029E-07
   30.0000000       4.52290607E-07
   30.1200008       1.76793193E-07
   30.2399998      -9.90996725E-08
   30.3600006      -3.63958634E-07
   30.4799995      -6.07037919E-07
   30.6000004      -8.18510841E-07
   30.7199993      -9.89652449E-07
   30.8400002      -1.11298527E-06
   30.9599991      -1.18240553E-06
   31.0799999      -1.19330502E-06
   31.2000008      -1.14270074E-06
   31.3199997      -1.02937668E-06
   31.4400005      -8.54036045E-07
   31.5599995      -6.19450930E-07
   31.6800003      -3.30592741E-07
   31.7999992       5.28336708E-09
   31.9200001       3.78626993E-07
   32.0400009       7.77683681E-07
   32.1599998       1.18871276E-06
   32.2799988       1.59635044E-06
   32.4000015       1.98412340E-06
   32.5200005       2.33510673E-06
   32.6399994       2.63270749E-06
   32.7599983       2.86152999E-06
   32.8800011       3.00828106E-06
   33.0000000       3.06264974E-06
   33.1199989       3.01809473E-06
   33.2400017       2.87247553E-06
   33.3600006       2.62846129E-06
   33.4799995       2.29367106E-06
   33.5999985       1.88050944E-06
   33.7200012       1.40568795E-06
   33.8400002       8.89442504E-07
   33.9599991       3.54488066E-07
   34.0800018      -1.75232316E-07
   34.2000008      -6.75921058E-07
   34.3199997      -1.12532859E-06
   34.4399986      -1.50408596E-06
   34.5600014      -1.79686458E-06
   34.6800003      -1.99327974E-06
   34.7999992      -2.08846177E-06
   34.9199982      -2.08325446E-06
   35.0400009      -1.98401949E-06
   35.1599998      -1.80206473E-06
   35.2799988      -1.55273767E-06
   35.4000015      -1.25426016E-06
   35.5200005      -9.26394023E-07
   35.6399994      -5.89043395E-07
   35.7599983      -2.60905978E-07
   35.8800011       4.17250838E-08
   36.0000000       3.05917212E-07
   36.1199989       5.22745779E-07
   36.2400017       6.87592546E-07
   36.3600006       8.00086070E-07
   36.4799995       8.63707328E-07
   36.5999985       8.85109273E-07
   36.7200012       8.73225588E-07
   36.8400002       8.38256994E-07
   36.9599991       7.90631702E-07
   37.0800018       7.40033897E-07
   37.2000008       6.94583207E-07
   37.3199997       6.60228068E-07
   37.4399986       6.40394774E-07
   37.5600014       6.35903177E-07
   37.6800003       6.45136993E-07
   37.7999992       6.64429535E-07
   37.9199982       6.88609418E-07
   38.0400009       7.11637483E-07
   38.1599998       7.27262375E-07
   38.2799988       7.29628141E-07
   38.4000015       7.13775421E-07
   38.5200005       6.75998081E-07
   38.6399994       6.14033695E-07
   38.7599983       5.27090378E-07
   38.8800011       4.15729460E-07
   39.0000000       2.81640325E-07
   39.1199989       1.27353204E-07
   39.2400017      -4.40605277E-08
   39.3600006      -2.29254198E-07
   39.4799995      -4.24800163E-07
   39.5999985      -6.27289296E-07
   39.7200012      -8.33327704E-07
   39.8400002      -1.03944092E-06
   39.9599991      -1.24190933E-06
   40.0800018      -1.43657519E-06
   40.2000008      -1.61866069E-06
   40.3199997      -1.78264577E-06
   40.4399986      -1.92224502E-06
   40.5600014      -2.03051331E-06
   40.6800003      -2.10009330E-06
   40.7999992      -2.12360715E-06
   40.9199982      -2.09416339E-06
   41.0400009      -2.00595036E-06
   41.1599998      -1.85485737E-06
   41.2799988      -1.63906577E-06
   41.4000015      -1.35954815E-06
   41.5200005      -1.02041690E-06
   41.6399994      -6.29071963E-07
   41.7599983      -1.96118336E-07
   41.8800011       2.64960619E-07
   42.0000000       7.38363894E-07
   42.1199989       1.20673587E-06
   42.2400017       1.65208155E-06
   42.3600006       2.05676770E-06
   42.4799995       2.40453528E-06
   42.5999985       2.68144640E-06
   42.7200012       2.87669104E-06
   42.8400002       2.98319628E-06
   42.9599991       2.99798808E-06
   43.0800018       2.92228560E-06
   43.2000008       2.76132300E-06
   43.3199997       2.52391851E-06
   43.4399986       2.22183371E-06
   43.5600014       1.86897137E-06
   43.6800003       1.48048582E-06
   43.7999992       1.07186804E-06
   43.9199982       6.58078648E-07
   44.0400009       2.52789846E-07
   44.1599998      -1.32215860E-07
   44.2799988      -4.87455736E-07
   44.4000015      -8.05949526E-07
   44.5200005      -1.08321865E-06
   44.6399994      -1.31710021E-06
   44.7599983      -1.50741198E-06
   44.8800011      -1.65551364E-06
   45.0000000      -1.76381354E-06
   45.1199989      -1.83527777E-06
   45.2400017      -1.87298667E-06
   45.3600006      -1.87978060E-06
   45.4799995      -1.85802469E-06
   45.5999985      -1.80950315E-06
   45.7200012      -1.73544606E-06
   45.8400002      -1.63667039E-06
   45.9599991      -1.51380880E-06
   46.0800018      -1.36759093E-06
   46.2000008      -1.19913454E-06
   46.3199997      -1.01020737E-06
   46.4399986      -8.03422950E-07
   46.5600014      -5.82344114E-07
   46.6800003      -3.51477070E-07
   46.7999992      -1.16153281E-07
   46.9199982       1.17691755E-07
   47.0400009       3.43822506E-07
   47.1599998       5.56061025E-07
   47.2799988       7.48664604E-07
   47.4000015       9.16686702E-07
   47.5200005       1.05628840E-06
   47.6399994       1.16497017E-06
   47.7599983       1.24170310E-06
   47.8800011       1.28694728E-06
   48.0000000       1.30255364E-06
   48.1199989       1.29155751E-06
   48.2400017       1.25787790E-06
   48.3600006       1.20594825E-06
   48.4799995       1.14030684E-06
   48.5999985       1.06518019E-06
   48.7200012       9.84096800E-07
   48.8400002       8.99562224E-07
   48.9599991       8.12831388E-07
   49.0800018       7.23799587E-07
   49.2000008       6.31032776E-07
   49.3199997       5.31943840E-07
   49.4399986       4.23110322E-07
   49.5600014       3.00718625E-07
   49.6800003       1.61103884E-07
   49.7999992       1.34647116E-09
   49.9199982      -1.80125042E-07
   50.0400009      -3.82979891E-07
   50.1599998      -6.04537036E-07
   50.2799988      -8.39477195E-07
   50.4000015      -1.07976189E-06
   50.5200005      -1.31479112E-06
   50.6399994      -1.53181634E-06
   50.7599983      -1.71660452E-06
   50.8800011      -1.85432555E-06
   51.0000000      -1.93061578E-06
   51.1199989      -1.93274809E-06
   51.2400017      -1.85082479E-06
   51.3600006      -1.67889664E-06
   51.4799995      -1.41591067E-06
   51.5999985      -1.06639152E-06
   51.7200012      -6.40773123E-07
   51.8400002      -1.55320762E-07
   51.9599991       3.68391113E-07
   52.0800018       9.04447802E-07
   52.2000008       1.42397232E-06
   52.3199997       1.89684374E-06
   52.4399986       2.29364832E-06
   52.5600014       2.58773207E-06
   52.6800003       2.75720254E-06
   52.7999992       2.78672087E-06
   52.9199982       2.66893267E-06
   53.0400009       2.40540135E-06
   53.1599998       2.00694740E-06
   53.2799988       1.49333073E-06
   53.4000015       8.92271203E-07
   53.5200005       2.37851694E-07
   53.6399994      -4.31597698E-07
   53.7599983      -1.07599283E-06
   53.8800011      -1.65618667E-06
   54.0000000      -2.13665862E-06
   54.1199989      -2.48799938E-06
   54.2400017      -2.68900067E-06
   54.3600006      -2.72818420E-06
   54.4799995      -2.60465026E-06
   54.5999985      -2.32817820E-06
   54.7200012      -1.91856725E-06
   54.8400002      -1.40426607E-06
   54.9599991      -8.20389971E-07
   55.0800018      -2.06279068E-07
   55.2000008       3.97227012E-07
   55.3199997       9.50595279E-07
   55.4399986       1.41828355E-06
   55.5600014       1.77111224E-06
   55.6800003       1.98816019E-06
   55.7999992       2.05805804E-06
   55.9199982       1.97959957E-06
   56.0400009       1.76164542E-06
   56.1599998       1.42233910E-06
   56.2799988       9.87711587E-07
   56.4000015       4.89785691E-07
   56.5200005      -3.56732386E-08
   56.6399994      -5.51594610E-07
   56.7599983      -1.02205547E-06
   56.8800011      -1.41458224E-06
   57.0000000      -1.70215003E-06
   57.1199989      -1.86476166E-06
   57.2400017      -1.89051514E-06
   57.3600006      -1.77611628E-06
   57.4799995      -1.52683162E-06
   57.5999985      -1.15590933E-06
   57.7200012      -6.83540634E-07
   57.8400002      -1.35452012E-07
   57.9599991       4.58758393E-07
   58.0800018       1.06741936E-06
   58.2000008       1.65859922E-06
   58.3199997       2.20181914E-06
   58.4399986       2.66957295E-06
   58.5600014       3.03857428E-06
   58.6800003       3.29068484E-06
   58.7999992       3.41349983E-06
   58.9199982       3.40059159E-06
   59.0400009       3.25144129E-06
   59.1599998       2.97110068E-06
   59.2799988       2.56964631E-06
   59.4000015       2.06149298E-06
   59.5200005       1.46462605E-06
   59.6399994       7.99815950E-07
   59.7599983       8.98570889E-08
   59.8800011      -6.41143572E-07
   60.0000000      -1.36841561E-06
   60.1199989      -2.06712321E-06
   60.2400017      -2.71293311E-06
   60.3600006      -3.28258011E-06
   60.4799995      -3.75446143E-06
   60.5999985      -4.10928305E-06
   60.7200012      -4.33076139E-06
   60.8400002      -4.40637359E-06
   60.9599991      -4.32812158E-06
   61.0800018      -4.09325776E-06
   61.2000008      -3.70490375E-06
   61.3199997      -3.17248441E-06
   61.4399986      -2.51189863E-06
   61.5600014      -1.74535910E-06
   61.6800003      -9.00858197E-07
   61.7999992      -1.12344090E-08
   61.9199982       8.87142505E-07
   62.0400009       1.75601906E-06
   62.1599998       2.55715577E-06
   62.2799988       3.25436304E-06
   62.4000015       3.81553900E-06
   62.5200005       4.21457435E-06
   62.6399994       4.43297631E-06
   62.7599983       4.46108652E-06
   62.8800011       4.29879037E-06
   63.0000000       3.95565394E-06
   63.1199989       3.45044805E-06
   63.2400017       2.81009079E-06
   63.3600006       2.06805589E-06
   63.4799995       1.26235807E-06
   63.5999985       4.33242690E-07
   63.7200012      -3.79253834E-07
   63.8400002      -1.13770182E-06
   63.9599991      -1.80946483E-06
   64.0800018      -2.36851383E-06
   64.1999969      -2.79674418E-06
   64.3199997      -3.08470180E-06
   64.4400024      -3.23167546E-06
   64.5599976      -3.24516623E-06
   64.6800003      -3.13978421E-06
   64.8000031      -2.93568291E-06
   64.9199982      -2.65666654E-06
   65.0400009      -2.32813272E-06
   65.1600037      -1.97502845E-06
   65.2799988      -1.61998162E-06
   65.4000015      -1.28175611E-06
   65.5199966      -9.74147497E-07
   65.6399994      -7.05387890E-07
   65.7600021      -4.78086918E-07
   65.8799973      -2.89684351E-07
   66.0000000      -1.33348024E-07
   66.1200027       7.87347465E-10
   66.2399979       1.24169190E-07
   66.3600006       2.48306179E-07
   66.4800034       3.83319104E-07
   66.5999985       5.36692426E-07
   66.7200012       7.12331598E-07
   66.8399963       9.10001006E-07
   66.9599991       1.12517944E-06
   67.0800018       1.34933566E-06
   67.1999969       1.57058821E-06
   67.3199997       1.77468507E-06
   67.4400024       1.94621407E-06
   67.5599976       2.06993946E-06
   67.6800003       2.13215117E-06
   67.8000031       2.12191776E-06
   67.9199982       2.03214108E-06
   68.0400009       1.86032696E-06
   68.1600037       1.60901254E-06
   68.2799988       1.28581303E-06
   68.4000015       9.03085038E-07
   68.5199966       4.77228753E-07
   68.6399994       2.76839671E-08
   68.7600021      -4.24304631E-07
   68.8799973      -8.57055852E-07
   69.0000000      -1.24984876E-06
   69.1200027      -1.58424075E-06
   69.2399979      -1.84520457E-06
   69.3600006      -2.02200226E-06
   69.4800034      -2.10873600E-06
   69.5999985      -2.10454141E-06
   69.7200012      -2.01342664E-06
   69.8399963      -1.84378428E-06
   69.9599991      -1.60763409E-06
   70.0800018      -1.31966954E-06
   70.1999969      -9.96199788E-07
   70.3199997      -6.54073403E-07
   70.4400024      -3.09669616E-07
   70.5599976       2.19728786E-08
   70.6800003       3.27839814E-07
   70.8000031       5.97407904E-07
   70.9199982       8.22887785E-07
   71.0400009       9.99257168E-07
   71.1600037       1.12411419E-06
   71.2799988       1.19739229E-06
   71.4000015       1.22098515E-06
   71.5199966       1.19832828E-06
   71.6399994       1.13398198E-06
   71.7600021       1.03325260E-06
   71.8799973       9.01874273E-07
   72.0000000       7.45766840E-07
   72.1200027       5.70868622E-07
   72.2399979       3.83035427E-07
   72.3600006       1.87986089E-07
   72.4800034      -8.72777584E-09
   72.5999985      -2.01752442E-07
   72.7200012      -3.85983014E-07