  -30.0000000       0.00000000    
  -29.8799992       0.00000000    
  -29.7600002       0.00000000    
  -29.6399994       0.00000000    
  -29.5200005       0.00000000    
  -29.3999996       0.00000000    
  -29.2800007      -2.95673976E-43
  -29.1599998      -2.26029442E-42
  -29.0400009      -1.14668253E-41
  -28.9200001      -5.25472911E-41
  -28.7999992      -2.02978083E-40
  -28.6800003      -6.43703265E-40
  -28.5599995      -1.75301877E-39
  -28.4400005      -4.38613005E-39
  -28.3199997      -1.05495466E-38
  -28.2000008      -2.42158612E-38
  -28.0799999      -5.08941513E-38
  -27.9599991      -9.32750557E-38
  -27.8400002      -1.39262510E-37
  -27.7199993      -1.36868307E-37
  -27.6000004       5.17493974E-38
  -27.4799995       7.15370938E-37
  -27.3600006       2.32531225E-36
  -27.2399998       5.36660416E-36
  -27.1200008       9.67924749E-36
  -27.0000000       1.30894941E-35
  -26.8799992       9.66474107E-36
  -26.7600002      -1.09274748E-35
  -26.6399994      -6.02311367E-35
  -26.5200005      -1.41234556E-34
  -26.3999996      -2.32143512E-34
  -26.2800007      -2.70260409E-34
  -26.1599998      -1.50542542E-34
  -26.0400009       2.42499273E-34
  -25.9200001       9.58114038E-34
  -25.7999992       1.86973470E-33
  -25.6800003       2.58042885E-33
  -25.5599995       2.42429124E-33
  -25.4400005       6.48905024E-34
  -25.3199997      -3.18608928E-33
  -25.2000008      -8.67169162E-33
  -25.0799999      -1.40987661E-32
  -24.9599991      -1.64340766E-32
  -24.8400002      -1.20505487E-32
  -24.7199993       1.68121075E-33
  -24.6000004       2.42657784E-32
  -24.4799995       5.02688345E-32
  -24.3600006       6.90246991E-32
  -24.2399998       6.69597435E-32
  -24.1200008       3.28225030E-32
  -24.0000000      -3.53131992E-32
  -23.8799992      -1.23987759E-31
  -23.7600002      -2.02890419E-31
  -23.6399994      -2.31088389E-31
  -23.5200005      -1.71577883E-31
  -23.3999996      -1.08158418E-32
  -23.2800007       2.24154007E-31
  -23.1599998       4.60422847E-31
  -23.0400009       5.93414610E-31
  -22.9200001       5.21877785E-31
  -22.7999992       1.95568841E-31
  -22.6800003      -3.41571928E-31
  -22.5599995      -9.34276233E-31
  -22.4400005      -1.34227293E-30
  -22.3199997      -1.31411805E-30
  -22.2000008      -6.92937557E-31
  -22.0799999       4.80629735E-31
  -21.9599991       1.91321467E-30
  -21.8400002       3.09057138E-30
  -21.7199993       3.41234387E-30
  -21.6000004       2.40870228E-30
  -21.4799995      -2.15106532E-32
  -21.3600006      -3.43870052E-30
  -21.2399998      -6.84565254E-30
  -21.1200008      -8.88331651E-30
  -21.0000000      -8.23411938E-30
  -20.8799992      -4.14781438E-30
  -20.7600002       3.06879821E-30
  -20.6399994       1.17965714E-29
  -20.5200005       1.92617234E-29
  -20.3999996       2.21930971E-29
  -20.2800007       1.79083107E-29
  -20.1599998       5.56889189E-30
  -20.0400009      -1.28192019E-29
  -19.9200001      -3.21496599E-29
  -19.7999992      -4.50982677E-29
  -19.6800003      -4.42475182E-29
  -19.5599995      -2.51046623E-29
  -19.4400005       1.08419489E-29
  -19.3199997       5.42651104E-29
  -19.2000008       8.86266196E-29
  -19.0799999       9.41306084E-29
  -18.9599991       5.48591455E-29
  -18.8400002      -3.24159047E-29
  -18.7199993      -1.50620397E-28
  -18.6000004      -2.59680453E-28
  -18.4799995      -3.02209873E-28
  -18.3600006      -2.19330511E-28
  -18.2399998       2.48189928E-29
  -18.1200008       4.15451400E-28
  -18.0000000       8.65870755E-28
  -17.8799992       1.21427283E-27
  -17.7600002       1.24913187E-27
  -17.6399994       7.68008332E-28
  -17.5200005      -3.35720115E-28
  -17.3999996      -1.97716758E-27
  -17.2800007      -3.80751420E-27
  -17.1599998      -5.20507951E-27
  -17.0400009      -5.36727286E-27
  -16.9200001      -3.52237025E-27
  -16.7999992       7.55264405E-28
  -16.6800003       7.19086466E-27
  -16.5599995       1.45295776E-26
  -16.4400005       2.04780002E-26
  -16.3199997       2.20085953E-26
  -16.2000008       1.61074581E-26
  -16.0799999       9.21396182E-28
  -15.9600000      -2.29140859E-26
  -15.8400002      -5.11697122E-26
  -15.7200003      -7.56754636E-26
  -15.6000004      -8.52670508E-26
  -15.4799995      -6.83598449E-26
  -15.3599997      -1.70514395E-26
  -15.2399998       6.79696484E-26
  -15.1199999       1.73113295E-25
  -15.0000000       2.70094683E-25
  -14.8800001       3.18650181E-25
  -14.7600002       2.75124633E-25
  -14.6400003       1.06833349E-25
  -14.5200005      -1.90080657E-25
  -14.3999996      -5.74045946E-25
  -14.2799997      -9.49481860E-25
  -14.1599998      -1.17357200E-24
  -14.0400000      -1.08391056E-24
  -13.9200001      -5.47778307E-25
  -13.8000002       4.73697908E-25
  -13.6800003       1.86215508E-24
  -13.5600004       3.30284662E-24
  -13.4399996       4.29655498E-24
  -13.3199997       4.24473747E-24
  -13.1999998       2.61503229E-24
  -13.0799999      -8.31084784E-25
  -12.9600000      -5.79851972E-24
  -12.8400002      -1.12868096E-23
  -12.7200003      -1.55833366E-23
  -12.6000004      -1.65090901E-23
  -12.4799995      -1.19590461E-23
  -12.3599997      -6.95522932E-25
  -12.2399998       1.67586242E-23
  -12.1199999       3.73937771E-23
  -12.0000000       5.54978667E-23
  -11.8800001       6.32888211E-23
  -11.7600002       5.26048550E-23
  -11.6400003       1.75960205E-23
  -11.5200005      -4.20196448E-23
  -11.3999996      -1.17990847E-22
  -11.2799997      -1.92044073E-22
  -11.1599998      -2.37139742E-22
  -11.0400000      -2.22426691E-22
  -10.9200001      -1.22044633E-22
  -10.8000002       7.33308121E-23
  -10.6800003       3.44807441E-22
  -10.5600004       6.37418039E-22
  -10.4399996       8.60708488E-22
  -10.3199997       9.01812862E-22
  -10.1999998       6.52805194E-22
  -10.0799999       5.01483516E-23
  -9.96000004      -8.81131529E-22
  -9.84000015      -1.99116732E-21
  -9.72000027      -2.99307550E-21
  -9.60000038      -3.49097482E-21
  -9.47999954      -3.05873983E-21
  -9.35999966      -1.36822499E-21
  -9.23999977       1.65141480E-21
  -9.11999989       5.66106457E-21
  -9.00000000       9.81964200E-21
  -8.88000011       1.28130818E-20
  -8.76000023       1.30541678E-20
  -8.64000034       9.07122207E-21
  -8.52000046       5.05375219E-23
  -8.39999962      -1.35697105E-20
  -8.27999973      -2.96225850E-20
  -8.15999985      -4.40644605E-20
  -8.03999996      -5.13637672E-20
  -7.92000008      -4.55612859E-20
  -7.80000019      -2.19858952E-20
  -7.67999983       2.06075328E-20
  -7.55999994       7.79577079E-20
  -7.44000006       1.38964120E-19
  -7.32000017       1.85883950E-19
  -7.19999981       1.96729942E-19
  -7.07999992       1.50166498E-19
  -6.96000004       3.25597288E-20
  -6.84000015      -1.53998334E-19
  -6.71999979      -3.84729148E-19
  -6.59999990      -6.08938210E-19
  -6.48000002      -7.53281331E-19
  -6.36000013      -7.33589159E-19
  -6.23999977      -4.75652168E-19
  -6.11999989       5.71813349E-20
  -6.00000000       8.34806753E-19
  -5.88000011       1.73767920E-18
  -5.76000023       2.55054545E-18
  -5.63999987       2.98212280E-18
  -5.51999998       2.71688382E-18
  -5.40000010       1.49835145E-18
  -5.28000021      -7.66295105E-19
  -5.15999985      -3.90147098E-18
  -5.03999996      -7.38912004E-18
  -4.92000008      -1.03611717E-17
  -4.80000019      -1.16911557E-17
  -4.67999983      -1.02035682E-17
  -4.55999994      -4.99384900E-18
  -4.44000006       4.18316982E-18
  -4.32000017       1.65369750E-17
  -4.19999981       2.99903596E-17
  -4.07999992       4.11814978E-17
  -3.96000004       4.58320594E-17
  -3.83999991       3.95412086E-17
  -3.72000003       1.89725437E-17
  -3.59999990      -1.67227961E-17
  -3.48000002      -6.45376769E-17
  -3.35999990      -1.16697569E-16
  -3.24000001      -1.60658327E-16
  -3.11999989      -1.80412644E-16
  -3.00000000      -1.59322450E-16
  -2.88000011      -8.43752746E-17
  -2.75999999       4.86632174E-17
  -2.64000010       2.30194094E-16
  -2.51999998       4.33217886E-16
  -2.40000010       6.12842366E-16
  -2.27999997       7.10313359E-16
  -2.16000009       6.62443028E-16
  -2.03999996       4.16269551E-16
  -1.91999996      -5.26408113E-17
  -1.79999995      -7.21435537E-16
  -1.67999995      -1.50538412E-15
  -1.55999994      -2.25291346E-15
  -1.44000006      -2.75553540E-15
  -1.32000005      -2.77633387E-15
  -1.20000005      -2.09753140E-15
  -1.08000004      -5.83134803E-16
 -0.959999979       1.75266279E-15
 -0.839999974       4.68577737E-15
 -0.720000029       7.74930623E-15
 -0.600000024       1.02461374E-14
 -0.479999989       1.13222928E-14
 -0.360000014       1.01076696E-14
 -0.239999995       5.91747212E-15
 -0.119999997      -1.50930620E-15
  -1.11022302E-15  -1.17757265E-14
  0.119999997      -2.36533239E-14
  0.239999995      -3.50327914E-14
  0.360000014      -4.30582727E-14
  0.479999989      -4.44849947E-14
  0.600000024      -3.62644281E-14
  0.720000029      -1.63114117E-14
  0.839999974       1.56496350E-14
  0.959999979       5.73177573E-14
   1.08000004       1.03326263E-13
   1.20000005       1.45241160E-13
   1.32000005       1.72226654E-13
   1.44000006       1.72477768E-13
   1.55999994       1.35391440E-13
   1.67999995       5.42813644E-14
   1.79999995      -7.07421250E-14
   1.91999996      -2.30270447E-13
   2.03999996      -4.04126846E-13
   2.16000009      -5.61593144E-13
   2.27999997      -6.63877211E-13
   2.40000010      -6.69096397E-13
   2.51999998      -5.39636586E-13
   2.64000010      -2.51228400E-13
   2.75999999       1.97477939E-13
   2.88000011       7.76553247E-13
   3.00000000       1.41968273E-12
   3.11999989       2.02437806E-12
   3.24000001       2.45921989E-12
   3.35999990       2.57904852E-12
   3.48000002       2.24781695E-12
   3.59999990       1.36729430E-12
   3.72000003      -9.18368300E-14
   3.83999991      -2.06145192E-12
   3.96000004      -4.35604157E-12
   4.07999992      -6.66764820E-12
   4.19999981      -8.58120953E-12
   4.32000017      -9.61388174E-12
   4.44000006      -9.27872969E-12
   4.55999994      -7.16909258E-12
   4.67999983      -3.05523749E-12
   4.80000019       3.01959521E-12
   4.92000008       1.06602583E-11
   5.03999996       1.90762163E-11
   5.15999985       2.70911731E-11
   5.28000021       3.32196423E-11
   5.40000010       3.58172866E-11
   5.51999998       3.33017815E-11
   5.63999987       2.44287836E-11
   5.76000023       8.59468746E-12
   5.88000011      -1.38740677E-11
   6.00000000      -4.14941033E-11
   6.11999989      -7.15130524E-11
   6.23999977      -9.99611297E-11
   6.36000013      -1.21903543E-10
   6.48000002      -1.31910205E-10
   6.59999990      -1.24731864E-10
   6.71999979      -9.61383473E-11
   6.84000015      -4.38398172E-11
   6.96000004       3.16202758E-11
   7.07999992       1.26136060E-10
   7.19999981       2.31620834E-10
   7.32000017       3.36039335E-10
   7.44000006       4.24004137E-10
   7.55999994       4.77999695E-10
   7.67999983       4.80228468E-10
   7.80000019       4.14988377E-10
   7.92000008       2.71397904E-10
   8.03999996       4.61936184E-11
   8.15999985      -2.53750687E-10
   8.27999973      -6.09583717E-10
   8.39999962      -9.89724080E-10
   8.52000046      -1.35056510E-09
   8.64000034      -1.63890845E-09
   8.76000023      -1.79624715E-09
   8.88000011      -1.76481707E-09
   9.00000000      -1.49509694E-09
   9.11999989      -9.54184509E-10
   9.23999977      -1.34236372E-10
   9.35999966       9.40037936E-10
   9.47999954       2.20595897E-09
   9.60000038       3.56068153E-09
   9.72000027       4.86325114E-09
   9.84000015       5.94167737E-09
   9.96000004       6.60538335E-09
   10.0799999       6.66285915E-09
   10.1999998       5.94370198E-09
   10.3199997       4.32356728E-09
   10.4399996       1.74987735E-09
   10.5600004      -1.73439418E-09
   10.6800003      -5.97194383E-09
   10.8000002      -1.06805489E-08
   10.9200001      -1.54536668E-08
   11.0400000      -1.97746512E-08
   11.1599998      -2.30460788E-08
   11.2799997      -2.46344580E-08
   11.3999996      -2.39289513E-08
   11.5200005      -2.04111377E-08
   11.6400003      -1.37310412E-08
   11.7600002      -3.78305076E-09
   11.8800001       9.22583876E-09
   12.0000000       2.47238763E-08
   12.1199999       4.17469295E-08
   12.2399998       5.89431508E-08
   12.3599997       7.46160680E-08
   12.4799995       8.68099690E-08
   12.6000004       9.34381177E-08
   12.7200003       9.24506125E-08
   12.8400002       8.20345463E-08
   12.9600000       6.08348572E-08
   13.0799999       2.81804819E-08
   13.1999998      -1.57030282E-08
   13.3199997      -6.95153446E-08
   13.4399996      -1.30759432E-07
   13.5600004      -1.95696970E-07
   13.6800003      -2.59399599E-07
   13.8000002      -3.15909972E-07
   13.9200001      -3.58520452E-07
   14.0400000      -3.80170434E-07
   14.1599998      -3.73952815E-07
   14.2799997      -3.33712535E-07
   14.3999996      -2.54709903E-07
   14.5200005      -1.34312884E-07
   14.6400003       2.73249423E-08
   14.7600002       2.26649050E-07
   14.8800001       4.56202031E-07
   15.0000000       7.04285810E-07
   15.1199999       9.54833581E-07
   15.2399998       1.18753132E-06
   15.3599997       1.37821598E-06
   15.4799995       1.49956350E-06
   15.6000004       1.52206576E-06
   15.7200003       1.41527380E-06
   15.8400002       1.14926922E-06
   15.9600000       6.96306586E-07
   16.0799999       3.25530358E-08
   16.2000008      -8.60159048E-07
   16.3199997      -1.99266333E-06
   16.4400005      -3.36697349E-06
   16.5599995      -4.97507563E-06
   16.6800003      -6.79808818E-06
   16.7999992      -8.80587231E-06
   16.9200001      -1.09571374E-05
   17.0400009      -1.32000905E-05
   17.1599998      -1.54736263E-05
   17.2800007      -1.77090424E-05
   17.3999996      -1.98322286E-05
   17.5200005      -2.17662600E-05
   17.6399994      -2.34342751E-05
   17.7600002      -2.47625394E-05
   17.8799992      -2.56835392E-05
   18.0000000      -2.61389814E-05
   18.1200008      -2.60825345E-05
   18.2399998      -2.54821916E-05
   18.3600006      -2.43221384E-05
   18.4799995      -2.26040083E-05
   18.6000004      -2.03474629E-05
   18.7199993      -1.75900623E-05
   18.8400002      -1.43864063E-05
   18.9599991      -1.08065724E-05
   19.0799999      -6.93391303E-06
   19.2000008      -2.86230352E-06
   19.3199997       1.30705314E-06
   19.4400005       5.46912543E-06
   19.5599995       9.51870425E-06
   19.6800003       1.33540634E-05
   19.7999992       1.68804581E-05
   19.9200001       2.00133345E-05
   20.0400009       2.26811153E-05
   20.1599998       2.48274264E-05
   20.2800007       2.64127502E-05
   20.3999996       2.74153717E-05
   20.5200005       2.78316511E-05
   20.6399994       2.76756164E-05
   20.7600002       2.69778957E-05
   20.8799992       2.57840984E-05
   21.0000000       2.41527050E-05
   21.1200008       2.21525497E-05
   21.2399998       1.98600828E-05
   21.3600006       1.73564640E-05
   21.4799995       1.47246365E-05
   21.6000004       1.20465147E-05
   21.7199993       9.40034806E-06
   21.8400002       6.85837540E-06
   21.9599991       4.48483752E-06
   22.0799999       2.33437822E-06
   22.2000008       4.50878048E-07
   22.3199997      -1.13327940E-06
   22.4400005      -2.39751512E-06
   22.5599995      -3.33296293E-06
   22.6800003      -3.94201334E-06
   22.7999992      -4.23752908E-06
   22.9200001      -4.24179689E-06
   23.0400009      -3.98524207E-06
   23.1599998      -3.50497930E-06
   23.2800007      -2.84323164E-06
   23.3999996      -2.04567141E-06
   23.5200005      -1.15972762E-06
   23.6399994      -2.32897619E-07
   23.7600002       6.88888974E-07
   23.8799992       1.56281817E-06
   24.0000000       2.35060816E-06
   24.1200008       3.01975524E-06
   24.2399998       3.54456756E-06
   24.3600006       3.90694868E-06
   24.4799995       4.09689346E-06
   24.6000004       4.11267729E-06
   24.7199993       3.96070209E-06
   24.8400002       3.65501342E-06
   24.9599991       3.21647804E-06
   25.0799999       2.67165660E-06
   25.2000008       2.05141146E-06
   25.3199997       1.38930795E-06
   25.4400005       7.19883303E-07
   25.5599995       7.68715935E-08
   25.6800003      -5.08523442E-07
   25.7999992      -1.00921216E-06
   25.9200001      -1.40356883E-06
   26.0400009      -1.67646897E-06
   26.1599998      -1.81995119E-06
   26.2800007      -1.83346515E-06
   26.3999996      -1.72369027E-06
   26.5200005      -1.50393964E-06
   26.6399994      -1.19318690E-06
   26.7600002      -8.14783618E-07
   26.8799992      -3.94949154E-07
   27.0000000       3.88662045E-08
   27.1200008       4.59641825E-07
   27.2399998       8.42364329E-07
   27.3600006       1.16542708E-06
   27.4799995       1.41176974E-06
   27.6000004       1.56969475E-06
   27.7199993       1.63332447E-06
   27.8400002       1.60268542E-06
   27.9599991       1.48343202E-06
   28.0799999       1.28624492E-06
   28.2000008       1.02595880E-06
   28.3199997       7.20486696E-07
   28.4400005       3.89619601E-07
   28.5599995       5.37799032E-08
   28.6800003      -2.67193855E-07
   28.7999992      -5.55162387E-07
   28.9200001      -7.94643086E-07
   29.0400009      -9.73566216E-07
   29.1599998      -1.08380152E-06
   29.2800007      -1.12144278E-06
   29.3999996      -1.08685219E-06
   29.5200005      -9.84479016E-07
   29.6399994      -8.22477261E-07
   29.7600002      -6.12154452E-07
   29.8799992      -3.67290738E-07
   30.0000000      -1.03367093E-07
   30.1200008       1.63255123E-07
   30.2399998       4.16164283E-07
   30.3600006       6.39700374E-07
   30.4799995       8.19694435E-07
   30.6000004       9.44116778E-07
   30.7199993       1.00361012E-06
   30.8400002       9.91886964E-07
   30.9599991       9.05980471E-07
   31.0799999       7.46341811E-07
   31.2000008       5.16784326E-07
   31.3199997       2.24281195E-07
   31.4400005      -1.21369510E-07
   31.5599995      -5.07994969E-07
   31.6800003      -9.21588764E-07
   31.7999992      -1.34691709E-06
   31.9200001      -1.76816081E-06
   32.0400009      -2.16956482E-06
   32.1599998      -2.53606754E-06
   32.2799988      -2.85388273E-06
   32.4000015      -3.11101780E-06
   32.5200005      -3.29770523E-06
   32.6399994      -3.40674001E-06
   32.7599983      -3.43371494E-06
   32.8800011      -3.37714937E-06
   33.0000000      -3.23851350E-06
   33.1199989      -3.02215403E-06
   33.2400017      -2.73512296E-06
   33.3600006      -2.38691928E-06
   33.4799995      -1.98914881E-06
   33.5999985      -1.55511327E-06
   33.7200012      -1.09933762E-06
   33.8400002      -6.37044650E-07
   33.9599991      -1.83592618E-07
   34.0800018       2.46108527E-07
   34.2000008       6.38182541E-07
   34.3199997       9.80349796E-07
   34.4399986       1.26244311E-06
   34.5600014       1.47684659E-06
   34.6800003       1.61883054E-06
   34.7999992       1.68675422E-06
   34.9199982       1.68211966E-06
   35.0400009       1.60946024E-06
   35.1599998       1.47606124E-06
   35.2799988       1.29152431E-06
   35.4000015       1.06719483E-06
   35.5200005       8.15488306E-07
   35.6399994       5.49157960E-07
   35.7599983       2.80556861E-07
   35.8800011       2.09460200E-08
   36.0000000      -2.20098173E-07
   36.1199989      -4.35133501E-07
   36.2400017      -6.19125160E-07
   36.3600006      -7.69525684E-07
   36.4799995      -8.86159796E-07
   36.5999985      -9.70932774E-07
   36.7200012      -1.02739466E-06
   36.8400002      -1.06020661E-06
   36.9599991      -1.07456219E-06
   37.0800018      -1.07562175E-06
   37.2000008      -1.06800860E-06
   37.3199997      -1.05541244E-06
   37.4399986      -1.04032881E-06
   37.5600014      -1.02394517E-06
   37.6800003      -1.00617206E-06
   37.7999992      -9.85797556E-07
   37.9199982      -9.60736998E-07
   38.0400009      -9.28334259E-07
   38.1599998      -8.85678787E-07
   38.2799988      -8.29898852E-07
   38.4000015      -7.58403417E-07
   38.5200005      -6.69055737E-07
   38.6399994      -5.60274600E-07
   38.7599983      -4.31072635E-07
   38.8800011      -2.81050546E-07
   39.0000000      -1.10373101E-07
   39.1199989       8.02467355E-08
   39.2400017       2.89532039E-07
   39.3600006       5.15580155E-07
   39.4799995       7.55751728E-07
   39.5999985       1.00652176E-06
   39.7200012       1.26331543E-06
   39.8400002       1.52036125E-06
   39.9599991       1.77060338E-06
   40.0800018       2.00570980E-06
   40.2000008       2.21621144E-06
   40.3199997       2.39179371E-06
   40.4399986       2.52174732E-06
   40.5600014       2.59556055E-06
   40.6800003       2.60362845E-06
   40.7999992       2.53801886E-06
   40.9199982       2.39323936E-06
   41.0400009       2.16692820E-06
   41.1599998       1.86040279E-06
   41.2799988       1.47899743E-06
   41.4000015       1.03214370E-06
   41.5200005       5.33164894E-07
   41.6399994      -1.22058474E-09
   41.7599983      -5.51662993E-07
   41.8800011      -1.09716700E-06
   42.0000000      -1.61623052E-06
   42.1199989      -2.08805432E-06
   42.2400017      -2.49373329E-06
   42.3600006      -2.81733651E-06
   42.4799995      -3.04680157E-06
   42.5999985      -3.17457125E-06
   42.7200012      -3.19793435E-06
   42.8400002      -3.11905205E-06
   42.9599991      -2.94467077E-06
   43.0800018      -2.68556096E-06
   43.2000008      -2.35572838E-06
   43.3199997      -1.97146596E-06
   43.4399986      -1.55032285E-06
   43.5600014      -1.11006739E-06
   43.6800003      -6.67720087E-07
   43.7999992      -2.38714591E-07
   43.9199982       1.63761882E-07
   44.0400009       5.29220699E-07
   44.1599998       8.50105380E-07
   44.2799988       1.12181294E-06
   44.4000015       1.34252548E-06
   44.5200005       1.51288612E-06
   44.6399994       1.63556092E-06
   44.7599983       1.71473084E-06
   44.8800011       1.75555817E-06
   45.0000000       1.76366609E-06
   45.1199989       1.74466413E-06
   45.2400017       1.70374506E-06
   45.3600006       1.64536937E-06
   45.4799995       1.57304692E-06
   45.5999985       1.48922072E-06
   45.7200012       1.39524843E-06
   45.8400002       1.29148043E-06
   45.9599991       1.17742218E-06
   46.0800018       1.05197034E-06
   46.2000008       9.13707026E-07
   46.3199997       7.61233139E-07
   46.4399986       5.93517029E-07
   46.5600014       4.10232559E-07
   46.6800003       2.12056790E-07
   46.7999992       8.98492170E-10
   46.9199982      -2.19969806E-07
   47.0400009      -4.45897825E-07
   47.1599998      -6.70974373E-07
   47.2799988      -8.88276077E-07
   47.4000015      -1.09023597E-06
   47.5200005      -1.26910572E-06
   47.6399994      -1.41747500E-06
   47.7599983      -1.52879954E-06
   47.8800011      -1.59789090E-06
   48.0000000      -1.62131437E-06
   48.1199989      -1.59765921E-06
   48.2400017      -1.52764846E-06
   48.3600006      -1.41407907E-06
   48.4799995      -1.26159637E-06
   48.5999985      -1.07632934E-06
   48.7200012      -8.65423658E-07
   48.8400002      -6.36524817E-07
   48.9599991      -3.97266149E-07
   49.0800018      -1.54815766E-07
   49.2000008       8.44711181E-08
   49.3199997       3.15260650E-07
   49.4399986       5.33294610E-07
   49.5600014       7.35292190E-07
   49.6800003       9.18722549E-07
   49.7999992       1.08148583E-06
   49.9199982       1.22155313E-06
   50.0400009       1.33662320E-06
   50.1599998       1.42385375E-06
   50.2799988       1.47971741E-06
   50.4000015       1.50002018E-06
   50.5200005       1.48010531E-06
   50.6399994       1.41524083E-06
   50.7599983       1.30116598E-06
   50.8800011       1.13475778E-06
   51.0000000       9.14749592E-07
   51.1199989       6.42429711E-07
   51.2400017       3.22235366E-07
   51.3600006      -3.78375802E-08
   51.4799995      -4.26080618E-07
   51.5999985      -8.27226984E-07
   51.7200012      -1.22294307E-06
   51.8400002      -1.59265551E-06
   51.9599991      -1.91468212E-06
   52.0800018      -2.16760031E-06
   52.2000008      -2.33176615E-06
   52.3199997      -2.39086785E-06
   52.4399986      -2.33339165E-06
   52.5600014      -2.15387468E-06
   52.6800003      -1.85382771E-06
   52.7999992      -1.44222929E-06
   52.9199982      -9.35525861E-07
   53.0400009      -3.57101811E-07
   53.1599998       2.63772364E-07
   53.2799988       8.93467984E-07
   53.4000015       1.49591710E-06
   53.5200005       2.03480636E-06
   53.6399994       2.47590333E-06
   53.7599983       2.78935795E-06
   53.8800011       2.95182144E-06
   54.0000000       2.94822644E-06
   54.1199989       2.77309209E-06
   54.2400017       2.43125305E-06
   54.3600006       1.93793312E-06
   54.4799995       1.31814545E-06
   54.5999985       6.05429989E-07
   54.7200012      -1.60001790E-07
   54.8400002      -9.33611432E-07
   54.9599991      -1.66922166E-06
   55.0800018      -2.32187472E-06
   55.2000008      -2.85067836E-06
   55.3199997      -3.22144410E-06
   55.4399986      -3.40894439E-06
   55.5600014      -3.39862822E-06
   55.6800003      -3.18768070E-06
   55.7999992      -2.78535003E-06
   55.9199982      -2.21251548E-06
   56.0400009      -1.50052699E-06
   56.1599998      -6.89387093E-07
   56.2799988       1.74601425E-07
   56.4000015       1.04157243E-06
   56.5200005       1.86104205E-06
   56.6399994       2.58487489E-06
   56.7599983       3.17009108E-06
   56.8800011       3.58134275E-06
   57.0000000       3.79291600E-06
   57.1199989       3.79014637E-06
   57.2400017       3.57017529E-06
   57.3600006       3.14201679E-06
   57.4799995       2.52594509E-06
   57.5999985       1.75225591E-06
   57.7200012       8.59487727E-07
   57.8400002      -1.07777197E-07
   57.9599991      -1.10139490E-06
   58.0800018      -2.07227322E-06
   58.2000008      -2.97296106E-06
   58.3199997      -3.76006847E-06
   58.4399986      -4.39638779E-06
   58.5600014      -4.85260625E-06
   58.6800003      -5.10853351E-06
   58.7999992      -5.15380680E-06
   58.9199982      -4.98805821E-06
   59.0400009      -4.62057369E-06
   59.1599998      -4.06948766E-06
   59.2799988      -3.36060089E-06
   59.4000015      -2.52589712E-06
   59.5200005      -1.60186539E-06
   59.6399994      -6.27717952E-07
   59.7599983       3.56404371E-07
   59.8800011       1.31116155E-06
   60.0000000       2.19961225E-06
   60.1199989       2.98863029E-06
   60.2400017       3.65010123E-06
   60.3600006       4.16187459E-06
   60.4799995       4.50845118E-06
   60.5999985       4.68140115E-06
   60.7200012       4.67950122E-06
   60.8400002       4.50859670E-06
   60.9599991       4.18118952E-06
   61.0800018       3.71576471E-06
   61.2000008       3.13587816E-06
   61.3199997       2.46902664E-06
   61.4399986       1.74535194E-06
   61.5600014       9.96227072E-07
   61.6800003       2.52790642E-07
   61.7999992      -4.55492369E-07
   61.9199982      -1.10216763E-06
   62.0400009      -1.66494522E-06
   62.1599998      -2.12660075E-06
   62.2799988      -2.47556545E-06
   62.4000015      -2.70617193E-06
   62.5200005      -2.81854295E-06
   62.6399994      -2.81814005E-06
   62.7599983      -2.71501472E-06
   62.8800011      -2.52282803E-06
   63.0000000      -2.25772260E-06
   63.1199989      -1.93713936E-06
   63.2400017      -1.57866941E-06
   63.3600006      -1.19902961E-06
   63.4799995      -8.13227530E-07
   63.5999985      -4.33962612E-07
   63.7200012      -7.12881203E-08
   63.8400002       2.67471307E-07
   63.9599991       5.77571655E-07
   64.0800018       8.56515214E-07
   64.1999969       1.10358621E-06
   64.3199997       1.31931893E-06
   64.4400024       1.50495941E-06
   64.5599976       1.66197219E-06
   64.6800003       1.79163783E-06
   64.8000031       1.89476350E-06
   64.9199982       1.97152394E-06
   65.0400009       2.02142610E-06
   65.1600037       2.04338517E-06
   65.2799988       2.03588593E-06
   65.4000015       1.99720375E-06
   65.5199966       1.92565085E-06
   65.6399994       1.81982580E-06
   65.7600021       1.67883741E-06
   65.8799973       1.50249662E-06
   66.0000000       1.29146360E-06
   66.1200027       1.04735341E-06
   66.2399979       7.72806970E-07
   66.3600006       4.71536026E-07
   66.4800034       1.48349969E-07
   66.5999985      -1.90830420E-07
   66.7200012      -5.38975257E-07
   66.8399963      -8.87974181E-07
   66.9599991      -1.22870983E-06
   67.0800018      -1.55119892E-06
   67.1999969      -1.84482576E-06
   67.3199997      -2.09868813E-06
   67.4400024      -2.30206206E-06
   67.5599976      -2.44498256E-06
   67.6800003      -2.51890833E-06
   67.8000031      -2.51742722E-06
   67.9199982      -2.43693376E-06
   68.0400009      -2.27720898E-06
   68.1600037      -2.04181720E-06
   68.2799988      -1.73825515E-06
   68.4000015      -1.37780182E-06
   68.5199966      -9.75049602E-07
   68.6399994      -5.47129673E-07
   68.7600021      -1.12679913E-07
   68.8799973       3.09359081E-07
   69.0000000       7.01015495E-07
   69.1200027       1.04650508E-06
   69.2399979       1.33327728E-06
   69.3600006       1.55279065E-06
   69.4800034       1.70093529E-06
   69.5999985       1.77807021E-06
   69.7200012       1.78867560E-06
   69.8399963       1.74066088E-06
   69.9599991       1.64440905E-06
   70.0800018       1.51166080E-06
   70.1999969       1.35435278E-06
   70.3199997       1.18353159E-06
   70.4400024       1.00844818E-06
   70.5599976       8.35918570E-07
   70.6800003       6.70004681E-07
   70.8000031       5.12037730E-07
   70.9199982       3.60967846E-07
   71.0400009       2.13994241E-07
   71.1600037       6.73998457E-08
   71.2799988      -8.25043358E-08
   71.4000015      -2.38432108E-07
   71.5199966      -4.01280602E-07
   71.6399994      -5.69492727E-07
   71.7600021      -7.38704955E-07
   71.8799973      -9.01734836E-07
   72.0000000      -1.04892706E-06
   72.1200027      -1.16884405E-06
   72.2399979      -1.24924748E-06
   72.3600006      -1.27828332E-06
   72.4800034      -1.24576025E-06
   72.5999985      -1.14439183E-06
   72.7200012      -9.70871156E-07