  -30.0000000       0.00000000    
  -29.8799992       0.00000000    
  -29.7600002       0.00000000    
  -29.6399994       0.00000000    
  -29.5200005       0.00000000    
  -29.3999996       0.00000000    
  -29.2800007      -0.00000000    
  -29.1599998      -1.40129846E-45
  -29.0400009       2.38220739E-44
  -28.9200001       2.77457096E-43
  -28.7999992       1.05517774E-42
  -28.6800003       6.85234949E-43
  -28.5599995      -7.64128053E-42
  -28.4400005      -3.55691589E-41
  -28.3199997      -7.98992358E-41
  -28.2000008      -6.54014019E-41
  -28.0799999       2.19076199E-40
  -27.9599991       1.05013867E-39
  -27.8400002       2.35338408E-39
  -27.7199993       2.90302519E-39
  -27.6000004      -2.94424018E-40
  -27.4799995      -1.10478245E-38
  -27.3600006      -2.99847127E-38
  -27.2399998      -4.78726099E-38
  -27.1200008      -4.06566234E-38
  -27.0000000       2.54618257E-38
  -26.8799992       1.71537519E-37
  -26.7600002       3.68598041E-37
  -26.6399994       5.05454230E-37
  -26.5200005       3.95103030E-37
  -26.3999996      -1.52480017E-37
  -26.2800007      -1.19625133E-36
  -26.1599998      -2.52113441E-36
  -26.0400009      -3.56825888E-36
  -25.9200001      -3.50379395E-36
  -25.7999992      -1.43498164E-36
  -25.6800003       3.26526272E-36
  -25.5599995       1.05494957E-35
  -25.4400005       1.91714806E-35
  -25.3199997       2.60492676E-35
  -25.2000008       2.58008612E-35
  -25.0799999       1.12495964E-35
  -24.9599991      -2.39489597E-35
  -24.8400002      -7.98977426E-35
  -24.7199993      -1.43454139E-34
  -24.6000004      -1.83638678E-34
  -24.4799995      -1.55544971E-34
  -24.3600006      -1.76572998E-35
  -24.2399998       2.38658621E-34
  -24.1200008       5.58637803E-34
  -24.0000000       8.12379187E-34
  -23.8799992       8.21857896E-34
  -23.7600002       4.33117414E-34
  -23.6399994      -3.85313732E-34
  -23.5200005      -1.46283632E-33
  -23.3999996      -2.42095155E-33
  -23.2800007      -2.77611597E-33
  -23.1599998      -2.13664796E-33
  -23.0400009      -4.19534117E-34
  -22.9200001       2.02317033E-33
  -22.7999992       4.46102678E-33
  -22.6800003       6.03914117E-33
  -22.5599995       6.13299190E-33
  -22.4400005       4.62390548E-33
  -22.3199997       1.91919363E-33
  -22.2000008      -1.33987897E-33
  -22.0799999      -4.74220135E-33
  -21.9599991      -8.42917685E-33
  -21.8400002      -1.29362551E-32
  -21.7199993      -1.84182832E-32
  -21.6000004      -2.35238063E-32
  -21.4799995      -2.46079192E-32
  -21.3600006      -1.61563984E-32
  -21.2399998       7.00171014E-33
  -21.1200008       4.59426127E-32
  -21.0000000       9.37223762E-32
  -20.8799992       1.33523722E-31
  -20.7600002       1.41148507E-31
  -20.6399994       9.28995066E-32
  -20.5200005      -2.24712349E-32
  -20.3999996      -1.91787111E-31
  -20.2800007      -3.71282289E-31
  -20.1599998      -4.91700964E-31
  -20.0400009      -4.76952319E-31
  -19.9200001      -2.73252290E-31
  -19.7999992       1.20053602E-31
  -19.6800003       6.30387857E-31
  -19.5599995       1.11421056E-30
  -19.4400005       1.38745065E-30
  -19.3199997       1.28022281E-30
  -19.2000008       7.01690241E-31
  -19.0799999      -3.05915963E-31
  -18.9599991      -1.54537888E-30
  -18.8400002      -2.68865030E-30
  -18.7199993      -3.34808439E-30
  -18.6000004      -3.18111867E-30
  -18.4799995      -2.00312325E-30
  -18.3600006       1.22046912E-31
  -18.2399998       2.84169816E-30
  -18.1200008       5.54285233E-30
  -18.0000000       7.45491145E-30
  -17.8799992       7.81631145E-30
  -17.7600002       6.07974104E-30
  -17.6399994       2.11659174E-30
  -17.5200005      -3.62919342E-30
  -17.3999996      -1.00915840E-29
  -17.2800007      -1.56836615E-29
  -17.1599998      -1.85735149E-29
  -17.0400009      -1.71197463E-29
  -16.9200001      -1.04000360E-29
  -16.7999992       1.28721456E-30
  -16.6800003       1.61072412E-29
  -16.5599995       3.07239030E-29
  -16.4400005       4.08053097E-29
  -16.3199997       4.20174298E-29
  -16.2000008       3.13702421E-29
  -16.0799999       8.60796947E-30
  -15.9600000      -2.28065344E-29
  -15.8400002      -5.56058767E-29
  -15.7200003      -7.99042936E-29
  -15.6000004      -8.57174001E-29
  -15.4799995      -6.64036571E-29
  -15.3599997      -2.20962845E-29
  -15.2399998       3.81815160E-29
  -15.1199999       9.70379863E-29
  -15.0000000       1.32673739E-28
  -14.8800001       1.26021216E-28
  -14.7600002       6.94000189E-29
  -14.6400003      -2.62746858E-29
  -14.5200005      -1.29306323E-28
  -14.3999996      -1.93017915E-28
  -14.2799997      -1.70411012E-28
  -14.1599998      -3.52288247E-29
  -14.0400000       1.96747069E-28
  -13.9200001       4.55109668E-28
  -13.8000002       6.20225035E-28
  -13.6800003       5.52624701E-28
  -13.5600004       1.45291782E-28
  -13.4399996      -6.12109503E-28
  -13.3199997      -1.57796640E-27
  -13.1999998      -2.43958644E-27
  -13.0799999      -2.75582163E-27
  -12.9600000      -2.07465815E-27
  -12.8400002      -1.15378009E-28
  -12.7200003       3.02603307E-27
  -12.6000004       6.71927838E-27
  -12.4799995       9.77709969E-27
  -12.3599997       1.06442204E-26
  -12.2399998       7.82826196E-27
  -12.1199999       5.21908285E-28
  -12.0000000      -1.07352221E-26
  -11.8800001      -2.35964490E-26
  -11.7600002      -3.39290739E-26
  -11.6400003      -3.65418799E-26
  -11.5200005      -2.66758523E-26
  -11.3999996      -2.04409788E-27
  -11.2799997       3.51073918E-26
  -11.1599998       7.67028625E-26
  -11.0400000       1.09160292E-25
  -10.9200001       1.15967792E-25
  -10.8000002       8.25772570E-26
  -10.6800003       2.82751842E-27
  -10.5600004      -1.14832066E-25
  -10.4399996      -2.43762802E-25
  -10.3199997      -3.40768781E-25
  -10.1999998      -3.54717716E-25
  -10.0799999      -2.42115291E-25
  -9.96000004       1.30287466E-26
  -9.84000015       3.80533608E-25
  -9.72000027       7.74137309E-25
  -9.60000038       1.05808543E-24
  -9.47999954       1.07533101E-24
  -9.35999966       6.96699518E-25
  -9.23999977      -1.17787965E-25
  -9.11999989      -1.26285469E-24
  -9.00000000      -2.46063505E-24
  -8.88000011      -3.28554710E-24
  -8.76000023      -3.25605632E-24
  -8.64000034      -1.98968154E-24
  -8.52000046       6.07814123E-25
  -8.39999962       4.17424920E-24
  -8.27999973       7.81656317E-24
  -8.15999985       1.02010586E-23
  -8.03999996       9.85033731E-24
  -7.92000008       5.63097434E-24
  -7.80000019      -2.66253079E-24
  -7.67999983      -1.38012683E-23
  -7.55999994      -2.49176311E-23
  -7.44000006      -3.18189286E-23
  -7.32000017      -2.99414302E-23
  -7.19999981      -1.58861377E-23
  -7.07999992       1.07653757E-23
  -6.96000004       4.58999885E-23
  -6.84000015       8.02864196E-23
  -6.71999979       1.00620426E-22
  -6.59999990       9.25768536E-23
  -6.48000002       4.56771258E-23
  -6.36000013      -4.09778183E-23
  -6.23999977      -1.53822588E-22
  -6.11999989      -2.62994387E-22
  -6.00000000      -3.25668641E-22
  -5.88000011      -2.95778411E-22
  -5.76000023      -1.39566243E-22
  -5.63999987       1.45974987E-22
  -5.51999998       5.17159135E-22
  -5.40000010       8.77183741E-22
  -5.28000021       1.08611157E-21
  -5.15999985       9.91453815E-22
  -5.03999996       4.78089795E-22
  -4.92000008      -4.71318819E-22
  -4.80000019      -1.72224214E-21
  -4.67999983      -2.96307182E-21
  -4.55999994      -3.73172597E-21
  -4.44000006      -3.50943330E-21
  -4.32000017      -1.88046850E-21
  -4.19999981       1.26737651E-21
  -4.07999992       5.55322656E-21
  -3.96000004       9.99686383E-21
  -3.83999991       1.30734175E-20
  -3.72000003       1.29872566E-20
  -3.59999990       8.17460917E-21
  -3.48000002      -2.03057270E-21
  -3.35999990      -1.67207291E-20
  -3.24000001      -3.29583006E-20
  -3.11999989      -4.58019082E-20
  -3.00000000      -4.90377353E-20
  -2.88000011      -3.67035483E-20
  -2.75999999      -5.26480265E-21
  -2.64000010       4.39850544E-20
  -2.51999998       1.03005564E-19
  -2.40000010       1.56447952E-19
  -2.27999997       1.83286150E-19
  -2.16000009       1.61137019E-19
  -2.03999996       7.31070497E-20
  -1.91999996      -8.39072691E-20
  -1.79999995      -2.91517370E-19
  -1.67999995      -5.05551852E-19
  -1.55999994      -6.58184718E-19
  -1.44000006      -6.68802202E-19
  -1.32000005      -4.64177467E-19
  -1.20000005      -5.78698141E-21
  -1.08000004       6.81181580E-19
 -0.959999979       1.48562465E-18
 -0.839999974       2.20534851E-18
 -0.720000029       2.56843819E-18
 -0.600000024       2.28666201E-18
 -0.479999989       1.13885741E-18
 -0.360000014      -9.28047947E-19
 -0.239999995      -3.70378143E-18
 -0.119999997      -6.65740186E-18
  -1.11022302E-15  -8.95283964E-18
  0.119999997      -9.56553149E-18
  0.239999995      -7.51013325E-18
  0.360000014      -2.15998158E-18
  0.479999989       6.39734786E-18
  0.600000024       1.70595149E-17
  0.720000029       2.75787194E-17
  0.839999974       3.47154270E-17
  0.959999979       3.47567761E-17
   1.08000004       2.44071750E-17
   1.20000005       1.95234684E-18
   1.32000005      -3.15249913E-17
   1.44000006      -7.12104503E-17
   1.55999994      -1.08298774E-16
   1.67999995      -1.30778697E-16
   1.79999995      -1.25487587E-16
   1.91999996      -8.13942480E-17
   2.03999996       6.29985056E-18
   2.16000009       1.32056407E-16
   2.27999997       2.77053122E-16
   2.40000010       4.08715367E-16
   2.51999998       4.83908388E-16
   2.64000010       4.56443609E-16
   2.75999999       2.88630659E-16
   2.88000011      -3.46221872E-17
   3.00000000      -4.91969177E-16
   3.11999989      -1.01594275E-15
   3.24000001      -1.49177865E-15
   3.35999990      -1.76857568E-15
   3.48000002      -1.68485483E-15
   3.59999990      -1.10755942E-15
   3.72000003       2.04179244E-17
   3.83999991       1.63332611E-15
   3.96000004       3.50888650E-15
   4.07999992       5.26203675E-15
   4.19999981       6.37871163E-15
   4.32000017       6.29688698E-15
   4.44000006       4.53273630E-15
   4.55999994       8.37358984E-16
   4.67999983      -4.64393860E-15
   4.80000019      -1.12492870E-14
   4.92000008      -1.77601989E-14
   5.03999996      -2.24858804E-14
   5.15999985      -2.34989894E-14
   5.28000021      -1.90225270E-14
   5.40000010      -7.93017233E-15
   5.51999998       9.71970815E-15
   5.63999987       3.22340963E-14
   5.76000023       5.60605063E-14
   5.88000011       7.59261360E-14
   6.00000000       8.54435609E-14
   6.11999989       7.82114919E-14
   6.23999977       4.93324660E-14
   6.36000013      -2.85776380E-15
   6.48000002      -7.51770540E-14
   6.59999990      -1.58518137E-13
   6.71999979      -2.37747186E-13
   6.84000015      -2.92953108E-13
   6.96000004      -3.02244124E-13
   7.07999992      -2.46002871E-13
   7.19999981      -1.12153661E-13
   7.32000017       9.83881149E-14
   7.44000006       3.67235403E-13
   7.55999994       6.56346559E-13
   7.67999983       9.09408616E-13
   7.80000019       1.05769907E-12
   7.92000008       1.03066730E-12
   8.03999996       7.70533648E-13
   8.15999985       2.49114125E-13
   8.27999973      -5.15982439E-13
   8.39999962      -1.44942359E-12
   8.52000046      -2.41439377E-12
   8.64000034      -3.22044236E-12
   8.76000023      -3.64504130E-12
   8.88000011      -3.46877626E-12
   9.00000000      -2.52128071E-12
   9.11999989      -7.31919083E-13
   9.23999977       1.82354587E-12
   9.35999966       4.89093835E-12
   9.47999954       8.03119377E-12
   9.60000038       1.06484925E-11
   9.72000027       1.20579163E-11
   9.84000015       1.15912193E-11
   9.96000004       8.73148689E-12
   10.0799999       3.25917396E-12
   10.1999998      -4.61517586E-12
   10.3199997      -1.41606882E-11
   10.4399996      -2.41076915E-11
   10.5600004      -3.27249616E-11
   10.6800003      -3.80052725E-11
   10.8000002      -3.79551945E-11
   10.9200001      -3.09646198E-11
   11.0400000      -1.62103716E-11
   11.1599998       5.97021087E-12
   11.2799997       3.38112802E-11
   11.3999996       6.40323627E-11
   11.5200005       9.19977011E-11
   11.6400003       1.12157478E-10
   11.7600002       1.18766608E-10
   11.8800001       1.06827686E-10
   12.0000000       7.31518179E-11
   12.1199999       1.73849476E-11
   12.2399998      -5.71840457E-11
   12.3599997      -1.43224599E-10
   12.4799995      -2.29542579E-10
   12.6000004      -3.01945635E-10
   12.7200003      -3.44817536E-10
   12.8400002      -3.43311574E-10
   12.9600000      -2.85950125E-10
   13.0799999      -1.67304365E-10
   13.1999998       9.65902358E-12
   13.3199997       2.32013575E-10
   13.4399996       4.76515605E-10
   13.5600004       7.10777770E-10
   13.6800003       8.96128005E-10
   13.8000002       9.92077309E-10
   13.9200001       9.62056768E-10
   14.0400000       7.79821041E-10
   14.1599998       4.35690678E-10
   14.2799997      -5.83307430E-11
   14.3999996      -6.65554389E-10
   14.5200005      -1.32458189E-09
   14.6400003      -1.95285210E-09
   14.7600002      -2.45394016E-09
   14.8800001      -2.72828626E-09
   15.0000000      -2.68647504E-09
   15.1199999      -2.26367836E-09
   15.2399998      -1.43346368E-09
   15.3599997      -2.18948637E-10
   15.4799995       1.30067557E-09
   15.6000004       2.98993363E-09
   15.7200003       4.66425032E-09
   15.8400002       6.10479001E-09
   15.9600000       7.08023284E-09
   16.0799999       7.37374117E-09
   16.2000008       6.81244039E-09
   16.3199997       5.29604671E-09
   16.4400005       2.82091062E-09
   16.5599995      -5.04132125E-10
   16.6800003      -4.45314363E-09
   16.7999992      -8.69168471E-09
   16.9200001      -1.27991946E-08
   17.0400009      -1.63040621E-08
   17.1599998      -1.87286098E-08
   17.2800007      -1.96397067E-08
   17.3999996      -1.86996605E-08
   17.5200005      -1.57114695E-08
   17.6399994      -1.06528022E-08
   17.7600002      -3.69395181E-09
   17.8799992       4.80327911E-09
   18.0000000       1.43066599E-08
   18.1200008       2.41529712E-08
   18.2399998       3.36017649E-08
   18.3600006       4.18972981E-08
   18.4799995       4.83310920E-08
   18.6000004       5.22971604E-08
   18.7199993       5.33325490E-08
   18.8400002       5.11377181E-08
   18.9599991       4.55741933E-08
   19.0799999       3.66404578E-08
   19.2000008       2.44311114E-08
   19.3199997       9.08813202E-09
   19.4400005      -9.24377908E-09
   19.5599995      -3.04439567E-08
   19.6800003      -5.44105205E-08
   19.7999992      -8.10108673E-08
   19.9200001      -1.09979439E-07
   20.0400009      -1.40760150E-07
   20.1599998      -1.72298002E-07
   20.2800007      -2.02792847E-07
   20.3999996      -2.29436324E-07
   20.5200005      -2.48160319E-07
   20.6399994      -2.53431381E-07
   20.7600002      -2.38127612E-07
   20.8799992      -1.93534845E-07
   21.0000000      -1.09493968E-07
   21.1200008       2.52772097E-08
   21.2399998       2.22675993E-07
   21.3600006       4.94524556E-07
   21.4799995       8.51718482E-07
   21.6000004       1.30325259E-06
   21.7199993       1.85517968E-06
   21.8400002       2.50957123E-06
   21.9599991       3.26356030E-06
   22.0799999       4.10855000E-06
   22.2000008       5.02966941E-06
   22.3199997       6.00555086E-06
   22.4400005       7.00848568E-06
   22.5599995       8.00499402E-06
   22.6800003       8.95681569E-06
   22.7999992       9.82230904E-06
   22.9200001       1.05581958E-05
   23.0400009       1.11215832E-05
   23.1599998       1.14721506E-05
   23.2800007       1.15743824E-05
   23.3999996       1.13997157E-05
   23.5200005       1.09284520E-05
   23.6399994       1.01513278E-05
   23.7600002       9.07060894E-06
   23.8799992       7.70064435E-06
   24.0000000       6.06781214E-06
   24.1200008       4.20984225E-06
   24.2399998       2.17454340E-06
   24.3600006       1.79917166E-08
   24.4799995      -2.19773574E-06
   24.6000004      -4.40714894E-06
   24.7199993      -6.54412361E-06
   24.8400002      -8.54471455E-06
   24.9599991      -1.03498605E-05
   25.0799999      -1.19078268E-05
   25.2000008      -1.31762718E-05
   25.3199997      -1.41238324E-05
   25.4400005      -1.47311684E-05
   25.5599995      -1.49914167E-05
   25.6800003      -1.49100670E-05
   25.7999992      -1.45042850E-05
   25.9200001      -1.38017394E-05
   26.0400009      -1.28390284E-05
   26.1599998      -1.16597930E-05
   26.2800007      -1.03126331E-05
   26.3999996      -8.84894234E-06
   26.5200005      -7.32077069E-06
   26.6399994      -5.77880837E-06
   26.7600002      -4.27058103E-06
   26.8799992      -2.83892223E-06
   27.0000000      -1.52076268E-06
   27.1200008      -3.46262567E-07
   27.2399998       6.61705940E-07
   27.3600006       1.48774609E-06
   27.4799995       2.12382156E-06
   27.6000004       2.56888211E-06
   27.7199993       2.82827750E-06
   27.8400002       2.91301490E-06
   27.9599991       2.83891040E-06
   28.0799999       2.62568165E-06
   28.2000008       2.29602551E-06
   28.3199997       1.87471073E-06
   28.4400005       1.38771134E-06
   28.5599995       8.61394312E-07
   28.6800003       3.21767516E-07
   28.7999992      -2.06208696E-07
   28.9200001      -6.99252382E-07
   29.0400009      -1.13633530E-06
   29.1599998      -1.49920641E-06
   29.2800007      -1.77286392E-06
   29.3999996      -1.94596873E-06
   29.5200005      -2.01118996E-06
   29.6399994      -1.96546739E-06
   29.7600002      -1.81016696E-06
   29.8799992      -1.55111195E-06
   30.0000000      -1.19846504E-06
   30.1200008      -7.66445510E-07
   30.2399998      -2.72871063E-07
   30.3600006       2.61477965E-07
   30.4799995       8.13660108E-07
   30.6000004       1.35951848E-06
   30.7199993       1.87473461E-06
   30.8400002       2.33594437E-06
   30.9599991       2.72185980E-06
   31.0799999       3.01433488E-06
   31.2000008       3.19931564E-06
   31.3199997       3.26760869E-06
   31.4400005       3.21541961E-06
   31.5599995       3.04461810E-06
   31.6800003       2.76270839E-06
   31.7999992       2.38249118E-06
   31.9200001       1.92143580E-06
   32.0400009       1.40078987E-06
   32.1599998       8.44475608E-07
   32.2799988       2.77836278E-07
   32.4000015      -2.73694297E-07
   32.5200005      -7.85920292E-07
   32.6399994      -1.23713141E-06
   32.7599983      -1.60919478E-06
   32.8800011      -1.88842739E-06
   33.0000000      -2.06619961E-06
   33.1199989      -2.13923681E-06
   33.2400017      -2.10960889E-06
   33.3600006      -1.98441353E-06
   33.4799995      -1.77518450E-06
   33.5999985      -1.49706682E-06
   33.7200012      -1.16782121E-06
   33.8400002      -8.06722312E-07
   33.9599991      -4.33424447E-07
   34.0800018      -6.68672513E-08
   34.2000008       2.75715536E-07
   34.3199997       5.79626715E-07
   34.4399986       8.33333843E-07
   34.5600014       1.02886838E-06
   34.6800003       1.16198430E-06
   34.7999992       1.23208451E-06
   34.9199982       1.24193491E-06
   35.0400009       1.19720141E-06
   35.1599998       1.10585393E-06
   35.2799988       9.77488526E-07
   35.4000015       8.22618176E-07
   35.5200005       6.51983044E-07
   35.6399994       4.75924992E-07
   35.7599983       3.03861555E-07
   35.8800011       1.43884790E-07
   36.0000000       2.49880250E-09
   36.1199989      -1.15502743E-07
   36.2400017      -2.07029032E-07
   36.3600006      -2.70573793E-07
   36.4799995      -3.06012936E-07
   36.5999985      -3.14349677E-07
   36.7200012      -2.97438817E-07
   36.8400002      -2.57721524E-07
   36.9599991      -1.97995831E-07
   37.0800018      -1.21241115E-07
   37.2000008      -3.05064844E-08
   37.3199997       7.11364265E-08
   37.4399986       1.80585417E-07
   37.5600014       2.94660651E-07
   37.6800003       4.10039888E-07
   37.7999992       5.23200811E-07
   37.9199982       6.30394368E-07
   38.0400009       7.27669260E-07
   38.1599998       8.10961581E-07
   38.2799988       8.76254887E-07
   38.4000015       9.19806723E-07
   38.5200005       9.38426808E-07
   38.6399994       9.29785926E-07
   38.7599983       8.92723733E-07
   38.8800011       8.27525298E-07
   39.0000000       7.36131199E-07
   39.1199989       6.22252742E-07
   39.2400017       4.91368553E-07
   39.3600006       3.50588891E-07
   39.4799995       2.08384051E-07
   39.5999985       7.41855288E-08
   39.7200012      -4.21200070E-08
   39.8400002      -1.30774879E-07
   39.9599991      -1.82775835E-07
   40.0800018      -1.90499804E-07
   40.2000008      -1.48287413E-07
   40.3199997      -5.29444932E-08
   40.4399986       9.58732329E-08
   40.5600014       2.95419767E-07
   40.6800003       5.39780672E-07
   40.7999992       8.19966658E-07
   40.9199982       1.12417695E-06
   41.0400009       1.43822365E-06
   41.1599998       1.74609886E-06
   41.2799988       2.03066156E-06
   41.4000015       2.27441546E-06
   41.5200005       2.46034415E-06
   41.6399994       2.57277088E-06
   41.7599983       2.59820376E-06
   41.8800011       2.52613131E-06
   42.0000000       2.34972799E-06
   42.1199989       2.06643881E-06
   42.2400017       1.67840210E-06
   42.3600006       1.19268623E-06
   42.4799995       6.21314143E-07
   42.5999985      -1.89414422E-08
   42.7200012      -7.07000765E-07
   42.8400002      -1.41815144E-06
   42.9599991      -2.12494115E-06
   43.0800018      -2.79825667E-06
   43.2000008      -3.40855036E-06
   43.3199997      -3.92715674E-06
   43.4399986      -4.32763682E-06
   43.5600014      -4.58708291E-06
   43.6800003      -4.68730968E-06
   43.7999992      -4.61586114E-06
   43.9199982      -4.36678556E-06
   44.0400009      -3.94111066E-06
   44.1599998      -3.34701076E-06
   44.2799988      -2.59963508E-06
   44.4000015      -1.72061664E-06
   44.5200005      -7.37284552E-07
   44.6399994       3.18377488E-07
   44.7599983       1.41096587E-06
   44.8800011       2.50302242E-06
   45.0000000       3.55645739E-06
   45.1199989       4.53396524E-06
   45.2400017       5.40036899E-06
   45.3600006       6.12383883E-06
   45.4799995       6.67695394E-06
   45.5999985       7.03756905E-06
   45.7200012       7.18948650E-06
   45.8400002       7.12292376E-06
   45.9599991       6.83478629E-06
   46.0800018       6.32876163E-06
   46.2000008       5.61524257E-06
   46.3199997       4.71109297E-06
   46.4399986       3.63926983E-06
   46.5600014       2.42829128E-06
   46.6800003       1.11155953E-06
   46.7999992      -2.73469965E-07
   46.9199982      -1.68627446E-06
   47.0400009      -3.08440212E-06
   47.1599998      -4.42474857E-06
   47.2799988      -5.66495191E-06
   47.4000015      -6.76486070E-06
   47.5200005      -7.68802693E-06
   47.6399994      -8.40315897E-06
   47.7599983      -8.88545310E-06
   47.8800011      -9.11773259E-06
   48.0000000      -9.09132268E-06
   48.1199989      -8.80658081E-06
   48.2400017      -8.27305576E-06
   48.3600006      -7.50923164E-06
   48.4799995      -6.54186033E-06
   48.5999985      -5.40491828E-06
   48.7200012      -4.13821772E-06
   48.8400002      -2.78576294E-06
   48.9599991      -1.39392716E-06
   49.0800018      -9.54944834E-09
   49.2000008       1.32194998E-06
   49.3199997       2.55834379E-06
   49.4399986       3.66218114E-06
   49.5600014       4.60211504E-06
   49.6800003       5.35392428E-06
   49.7999992       5.90120408E-06
   49.9199982       6.23571668E-06
   50.0400009       6.35740025E-06
   50.1599998       6.27406007E-06
   50.2799988       6.00076555E-06
   50.4000015       5.55898987E-06
   50.5200005       4.97552310E-06
   50.6399994       4.28120984E-06
   50.7599983       3.50955042E-06
   50.8800011       2.69521774E-06
   51.0000000       1.87254386E-06
   51.1199989       1.07402855E-06
   51.2400017       3.28937944E-07
   51.3600006      -3.37948478E-07
   51.4799995      -9.07376716E-07
   51.5999985      -1.36638437E-06
   51.7200012      -1.70874364E-06
   51.8400002      -1.93504138E-06
   51.9599991      -2.05237666E-06
   52.0800018      -2.07367862E-06
   52.2000008      -2.01666921E-06
   52.3199997      -1.90252672E-06
   52.4399986      -1.75432831E-06
   52.5600014      -1.59536614E-06
   52.6800003      -1.44745616E-06
   52.7999992      -1.32935315E-06
   52.9199982      -1.25539088E-06
   53.0400009      -1.23444579E-06
   53.1599998      -1.26930672E-06
   53.2799988      -1.35650112E-06
   53.4000015      -1.48659444E-06
   53.5200005      -1.64494531E-06
   53.6399994      -1.81286532E-06
   53.7599983      -1.96909650E-06
   53.8800011      -2.09150426E-06
   54.0000000      -2.15885348E-06
   54.1199989      -2.15254295E-06
   54.2400017      -2.05816377E-06
   54.3600006      -1.86676823E-06
   54.4799995      -1.57575130E-06
   54.5999985      -1.18928062E-06
   54.7200012      -7.18239903E-07
   54.8400002      -1.79690133E-07
   54.9599991       4.04113678E-07
   55.0800018       1.00707916E-06
   55.2000008       1.60090724E-06
   55.3199997       2.15687919E-06
   55.4399986       2.64766754E-06
   55.5600014       3.04904484E-06
   55.6800003       3.34135984E-06
   55.7999992       3.51068570E-06
   55.9199982       3.54955773E-06
   56.0400009       3.45726107E-06
   56.1599998       3.23966174E-06
   56.2799988       2.90861090E-06
   56.4000015       2.48099013E-06
   56.5200005       1.97748363E-06
   56.6399994       1.42119256E-06
   56.7599983       8.36203867E-07
   56.8800011       2.46224658E-07
   57.0000000      -3.26616941E-07
   57.1199989      -8.62732634E-07
   57.2400017      -1.34574884E-06
   57.3600006      -1.76287915E-06
   57.4799995      -2.10500980E-06
   57.5999985      -2.36653568E-06
   57.7200012      -2.54500719E-06
   57.8400002      -2.64065829E-06
   57.9599991      -2.65588505E-06
   58.0800018      -2.59474677E-06
   58.2000008      -2.46253967E-06
   58.3199997      -2.26548127E-06
   58.4399986      -2.01052194E-06
   58.5600014      -1.70528142E-06
   58.6800003      -1.35808295E-06
   58.7999992      -9.78053549E-07
   58.9199982      -5.75237493E-07
   59.0400009      -1.60674460E-07
   59.1599998       2.53609443E-07
   59.2799988       6.54738130E-07
   59.4000015       1.02927868E-06
   59.5200005       1.36370079E-06
   59.6399994       1.64499352E-06
   59.7599983       1.86140642E-06
   59.8800011       2.00326463E-06
   60.0000000       2.06378877E-06
   60.1199989       2.03984087E-06
   60.2400017       1.93251117E-06
   60.3600006       1.74746629E-06
   60.4799995       1.49499567E-06
   60.5999985       1.18971025E-06
   60.7200012       8.49877608E-07
   60.8400002       4.96415339E-07
   60.9599991       1.51592943E-07
   61.0800018      -1.62468822E-07
   61.2000008      -4.25391278E-07
   61.3199997      -6.20093431E-07
   61.4399986      -7.34176240E-07
   61.5600014      -7.61011790E-07
   61.6800003      -7.00430689E-07
   61.7999992      -5.58936676E-07
   61.9199982      -3.49413085E-07
   62.0400009      -9.03306727E-08
   62.1599998       1.95492177E-07
   62.2799988       4.82489440E-07
   62.4000015       7.44188412E-07
   62.5200005       9.55155883E-07
   62.6399994       1.09290272E-06
   62.7599983       1.13960721E-06
   62.8800011       1.08353026E-06
   63.0000000       9.20021876E-07
   63.1199989       6.52045401E-07
   63.2400017       2.90186762E-07
   63.3600006      -1.47854948E-07
   63.4799995      -6.38257518E-07
   63.5999985      -1.15248122E-06
   63.7200012      -1.65899780E-06
   63.8400002      -2.12523150E-06
   63.9599991      -2.51958863E-06
   64.0800018      -2.81344956E-06
   64.1999969      -2.98300370E-06
   64.3199997      -3.01081468E-06
   64.4400024      -2.88702404E-06
   64.5599976      -2.61012929E-06
   64.6800003      -2.18728337E-06
   64.8000031      -1.63410846E-06
   64.9199982      -9.74028012E-07
   65.0400009      -2.37152989E-07
   65.1600037       5.41219038E-07
   65.2799988       1.32241826E-06
   65.4000015       2.06643790E-06
   65.5199966       2.73408750E-06
   65.6399994       3.28915098E-06
   65.7600021       3.70043745E-06
   65.8799973       3.94360359E-06
   66.0000000       4.00264344E-06
   66.1200027       3.87094360E-06
   66.2399979       3.55182669E-06
   66.3600006       3.05852882E-06
   66.4800034       2.41358589E-06
   66.5999985       1.64765095E-06
   66.7200012       7.97791245E-07
   66.8399963      -9.46334993E-08
   66.9599991      -9.86381565E-07
   67.0800018      -1.83486850E-06
   67.1999969      -2.60065758E-06
   67.3199997      -3.24972302E-06
   67.4400024      -3.75531931E-06
   67.5599976      -4.09932682E-06
   67.6800003      -4.27297209E-06
   67.8000031      -4.27688565E-06
   67.9199982      -4.12051168E-06
   68.0400009      -3.82093094E-06
   68.1600037      -3.40121733E-06
   68.2799988      -2.88847787E-06
   68.4000015      -2.31175090E-06
   68.5199966      -1.69994155E-06
   68.6399994      -1.07996436E-06
   68.7600021      -4.75234174E-07
   68.8799973       9.53888417E-08
   69.0000000       6.18145748E-07
   69.1200027       1.08441191E-06
   69.2399979       1.49026130E-06
   69.3600006       1.83565135E-06
   69.4800034       2.12334953E-06
   69.5999985       2.35774110E-06
   69.7200012       2.54366478E-06
   69.8399963       2.68540293E-06
   69.9599991       2.78593711E-06
   70.0800018       2.84653856E-06
   70.1999969       2.86671730E-06
   70.3199997       2.84451698E-06
   70.4400024       2.77709501E-06
   70.5599976       2.66149664E-06
   70.6800003       2.49550976E-06
   70.8000031       2.27847931E-06
   70.9199982       2.01196372E-06
   71.0400009       1.70014573E-06
   71.1600037       1.34992979E-06
   71.2799988       9.70709721E-07
   71.4000015       5.73824479E-07
   71.5199966       1.71761457E-07
   71.6399994      -2.22797823E-07
   71.7600021      -5.97978726E-07
   71.8799973      -9.43641226E-07
   72.0000000      -1.25212227E-06
   72.1200027      -1.51870347E-06
   72.2399979      -1.74174409E-06
   72.3600006      -1.92246512E-06
   72.4800034      -2.06440518E-06
   72.5999985      -2.17261186E-06
   72.7200012      -2.25267104E-06