  -30.0000000       0.00000000    
  -29.8799992       0.00000000    
  -29.7600002       0.00000000    
  -29.6399994       0.00000000    
  -29.5200005       0.00000000    
  -29.3999996      -0.00000000    
  -29.2800007       2.24207754E-44
  -29.1599998       1.49938936E-43
  -29.0400009      -1.26116862E-44
  -28.9200001      -7.51095977E-42
  -28.7999992      -4.48121236E-41
  -28.6800003      -1.37436551E-40
  -28.5599995      -2.05447170E-40
  -28.4400005       1.33718906E-40
  -28.3199997       1.55791178E-39
  -28.2000008       4.21150164E-39
  -28.0799999       5.86084395E-39
  -27.9599991       6.18940920E-40
  -27.8400002      -1.81376871E-38
  -27.7199993      -4.85572395E-38
  -27.6000004      -7.09828410E-38
  -27.4799995      -5.51818780E-38
  -27.3600006       3.03820565E-39
  -27.2399998       3.86867061E-38
  -27.1200008      -5.31053162E-38
  -27.0000000      -2.24589737E-37
  -26.8799992       4.47764605E-38
  -26.7600002       1.87626053E-36
  -26.6399994       6.34699723E-36
  -26.5200005       1.26531721E-35
  -26.3999996       1.56122137E-35
  -26.2800007       4.62569188E-36
  -26.1599998      -3.26026314E-35
  -26.0400009      -9.92988751E-35
  -25.9200001      -1.73984574E-34
  -25.7999992      -1.99261009E-34
  -25.6800003      -8.99338241E-35
  -25.5599995       2.26729718E-34
  -25.4400005       7.40496054E-34
  -25.3199997       1.28471881E-33
  -25.2000008       1.51189338E-33
  -25.0799999       9.75164032E-34
  -24.9599991      -6.58765034E-34
  -24.8400002      -3.30974687E-33
  -24.7199993      -6.22720043E-33
  -24.6000004      -7.96118831E-33
  -24.4799995      -6.72085148E-33
  -24.3600006      -1.14475233E-33
  -24.2399998       8.71257458E-33
  -24.1200008       2.05955750E-32
  -24.0000000       2.99826908E-32
  -23.8799992       3.11295854E-32
  -23.7600002       1.92155299E-32
  -23.6399994      -6.97254686E-33
  -23.5200005      -4.28891280E-32
  -23.3999996      -7.78536080E-32
  -23.2800007      -9.73117893E-32
  -23.1599998      -8.76609219E-32
  -23.0400009      -4.23314941E-32
  -22.9200001       3.32047708E-32
  -22.7999992       1.20083131E-31
  -22.6800003       1.90049319E-31
  -22.5599995       2.14576055E-31
  -22.4400005       1.76453739E-31
  -22.3199997       7.93549082E-32
  -22.2000008      -4.94527887E-32
  -22.0799999      -1.66287417E-31
  -21.9599991      -2.27514016E-31
  -21.8400002      -2.10264366E-31
  -21.7199993      -1.28955245E-31
  -21.6000004      -3.84488068E-32
  -21.4799995      -1.78231260E-32
  -21.3600006      -1.35493627E-31
  -21.2399998      -4.05133000E-31
  -21.1200008      -7.49475403E-31
  -21.0000000      -9.92097202E-31
  -20.8799992      -8.92757585E-31
  -20.7600002      -2.29043217E-31
  -20.6399994       1.09180019E-30
  -20.5200005       2.92604336E-30
  -20.3999996       4.83812974E-30
  -20.2800007       6.13915184E-30
  -20.1599998       6.03835273E-30
  -20.0400009       3.88832391E-30
  -19.9200001      -5.37693262E-31
  -19.7999992      -6.82700562E-30
  -19.6800003      -1.38577491E-29
  -19.5599995      -1.99329025E-29
  -19.4400005      -2.31090062E-29
  -19.3199997      -2.16419306E-29
  -19.2000008      -1.44284864E-29
  -19.0799999      -1.32756486E-30
  -18.9599991       1.66992014E-29
  -18.8400002       3.76037461E-29
  -18.7199993       5.83361713E-29
  -18.6000004       7.49095869E-29
  -18.4799995       8.24469364E-29
  -18.3600006       7.53677536E-29
  -18.2399998       4.80210078E-29
  -18.1200008      -3.89489803E-30
  -18.0000000      -8.09608768E-29
  -17.8799992      -1.76973654E-28
  -17.7600002      -2.76049678E-28
  -17.6399994      -3.51344848E-28
  -17.5200005      -3.67131455E-28
  -17.3999996      -2.85673333E-28
  -17.2800007      -7.92374463E-29
  -17.1599998       2.54305062E-28
  -17.0400009       6.76169592E-28
  -16.9200001       1.09761049E-27
  -16.7999992       1.38399685E-27
  -16.6800003       1.37758033E-27
  -16.5599995       9.40400295E-28
  -16.4400005       1.19577710E-29
  -16.3199997      -1.33197508E-27
  -16.2000008      -2.84028695E-27
  -16.0799999      -4.09102033E-27
  -15.9600000      -4.55864922E-27
  -15.8400002      -3.74935650E-27
  -15.7200003      -1.38697472E-27
  -15.6000004       2.39431322E-27
  -15.4799995       6.91685722E-27
  -15.3599997       1.09604342E-26
  -15.2399998       1.29559125E-26
  -15.1199999       1.13863243E-26
  -15.0000000       5.34125855E-27
  -14.8800001      -4.90831759E-27
  -14.7600002      -1.75121405E-26
  -14.6400003      -2.90373505E-26
  -14.5200005      -3.50275874E-26
  -14.3999996      -3.11602584E-26
  -14.2799997      -1.48368913E-26
  -14.1599998       1.31844357E-26
  -14.0400000       4.76846911E-26
  -13.9200001       7.90247513E-26
  -13.8000002       9.47910301E-26
  -13.6800003       8.31139166E-26
  -13.5600004       3.71469947E-26
  -13.4399996      -4.04395615E-26
  -13.3199997      -1.34576922E-25
  -13.1999998      -2.18232921E-25
  -13.0799999      -2.57357242E-25
  -12.9600000      -2.20363585E-25
  -12.8400002      -9.05182883E-26
  -12.7200003       1.22129066E-25
  -12.6000004       3.73837954E-25
  -12.4799995       5.89846189E-25
  -12.3599997       6.79458815E-25
  -12.2399998       5.62917436E-25
  -12.1199999       2.04751042E-25
  -12.0000000      -3.56262034E-25
  -11.8800001      -9.93091767E-25
  -11.7600002      -1.50401301E-24
  -11.6400003      -1.65952057E-24
  -11.5200005      -1.27797015E-24
  -11.3999996      -3.12370725E-25
  -11.2799997       1.08081517E-24
  -11.1599998       2.52503115E-24
  -11.0400000       3.48708351E-24
  -10.9200001       3.42868926E-24
  -10.8000002       2.02227392E-24
  -10.6800003      -6.29151134E-25
  -10.5600004      -3.85663802E-24
  -10.4399996      -6.46859158E-24
  -10.3199997      -7.03664085E-24
  -10.1999998      -4.41741675E-24
  -10.0799999       1.59806594E-24
  -9.96000004       9.72232096E-24
  -9.84000015       1.69823120E-23
  -9.72000027       1.91774926E-23
  -9.60000038       1.21285108E-23
  -9.47999954      -6.39648772E-24
  -9.35999966      -3.45352670E-23
  -9.23999977      -6.47587529E-23
  -9.11999989      -8.38583313E-23
  -9.00000000      -7.53727439E-23
  -8.88000011      -2.48157465E-23
  -8.76000023       7.28760938E-23
  -8.64000034       2.05474613E-22
  -8.52000046       3.38132365E-22
  -8.39999962       4.14187341E-22
  -8.27999973       3.65257922E-22
  -8.15999985       1.31896963E-22
  -8.03999996      -3.07321882E-22
  -7.92000008      -9.04827851E-22
  -7.80000019      -1.52204060E-21
  -7.67999983      -1.92972432E-21
  -7.55999994      -1.84302909E-21
  -7.44000006      -9.97316377E-22
  -7.32000017       7.40896193E-22
  -7.19999981       3.24947705E-21
  -7.07999992       6.05082699E-21
  -6.96000004       8.28626644E-21
  -6.84000015       8.81407956E-21
  -6.71999979       6.46281625E-21
  -6.59999990       4.33160671E-22
  -6.48000002      -9.21401654E-21
  -6.36000013      -2.11085813E-20
  -6.23999977      -3.23378764E-20
  -6.11999989      -3.86234539E-20
  -6.00000000      -3.50617369E-20
  -5.88000011      -1.74696668E-20
  -5.76000023       1.58074764E-20
  -5.63999987       6.19971546E-20
  -5.51999998       1.12499420E-19
  -5.40000010       1.52707260E-19
  -5.28000021       1.63728266E-19
  -5.15999985       1.26403628E-19
  -5.03999996       2.74663965E-20
  -4.92000008      -1.33093942E-19
  -4.80000019      -3.35243972E-19
  -4.67999983      -5.35171432E-19
  -4.55999994      -6.67312501E-19
  -4.44000006      -6.54336984E-19
  -4.32000017      -4.25832088E-19
  -4.19999981       5.59593436E-20
  -4.07999992       7.67990670E-19
  -3.96000004       1.60347762E-18
  -3.83999991       2.36382246E-18
  -3.72000003       2.77502903E-18
  -3.59999990       2.53528873E-18
  -3.48000002       1.39401916E-18
  -3.35999990      -7.46775452E-19
  -3.24000001      -3.72898107E-18
  -3.11999989      -7.06287587E-18
  -3.00000000      -9.91542889E-18
  -2.88000011      -1.11956596E-17
  -2.75999999      -9.75681536E-18
  -2.64000010      -4.70971370E-18
  -2.51999998       4.19363737E-18
  -2.40000010       1.61860634E-17
  -2.27999997       2.92341312E-17
  -2.16000009       4.00386088E-17
  -2.03999996       4.44003256E-17
  -1.91999996       3.80116524E-17
  -1.79999995       1.76391650E-17
  -1.67999995      -1.74628680E-17
  -1.55999994      -6.42043364E-17
  -1.44000006      -1.14784227E-16
  -1.32000005      -1.56742454E-16
  -1.20000005      -1.74332377E-16
  -1.08000004      -1.51413744E-16
 -0.959999979      -7.57338445E-17
 -0.839999974       5.59711298E-17
 -0.720000029       2.33088379E-16
 -0.600000024       4.27870408E-16
 -0.479999989       5.95382953E-16
 -0.360000014       6.78043627E-16
 -0.239999995       6.15494003E-16
 -0.119999997       3.59448119E-16
  -1.11022302E-15  -1.08297040E-16
  0.119999997      -7.58081888E-16
  0.239999995      -1.49956437E-15
  0.360000014      -2.17924107E-15
  0.479999989      -2.59322483E-15
  0.600000024      -2.51828401E-15
  0.720000029      -1.76071468E-15
  0.839999974      -2.17944238E-16
  0.959999979       2.05747416E-15
   1.08000004       4.80650201E-15
   1.20000005       7.54271066E-15
   1.32000005       9.57911000E-15
   1.44000006       1.01150354E-14
   1.55999994       8.38554994E-15
   1.67999995       3.86167022E-15
   1.79999995      -3.52696981E-15
   1.91999996      -1.31915251E-14
   2.03999996      -2.37614900E-14
   2.16000009      -3.30990897E-14
   2.27999997      -3.84990468E-14
   2.40000010      -3.70971700E-14
   2.51999998      -2.64714906E-14
   2.64000010      -5.36964170E-15
   2.75999999       2.55567120E-14
   2.88000011       6.31741973E-14
   3.00000000       1.01633769E-13
   3.11999989       1.32657069E-13
   3.24000001       1.46466227E-13
   3.35999990       1.33381180E-13
   3.48000002       8.59707813E-14
   3.59999990       1.48399558E-15
   3.72000003      -1.15866138E-13
   3.83999991      -2.53305921E-13
   3.96000004      -3.89166645E-13
   4.07999992      -4.94309834E-13
   4.19999981      -5.35604113E-13
   4.32000017      -4.81411731E-13
   4.44000006      -3.08612158E-13
   4.55999994      -1.02231574E-14
   4.67999983       3.97741058E-13
   4.80000019       8.71807672E-13
   4.92000008       1.34063485E-12
   5.03999996       1.71001191E-12
   5.15999985       1.87396084E-12
   5.28000021       1.73163979E-12
   5.40000010       1.20851636E-12
   5.51999998       2.78993598E-13
   5.63999987      -1.01343207E-12
   5.76000023      -2.54307122E-12
   5.88000011      -4.10055280E-12
   6.00000000      -5.40659618E-12
   6.11999989      -6.14284448E-12
   6.23999977      -5.99885766E-12
   6.36000013      -4.73112955E-12
   6.48000002      -2.22662795E-12
   6.59999990       1.43947256E-12
   6.71999979       5.96389344E-12
   6.84000015       1.08051545E-11
   6.96000004       1.52129715E-11
   7.07999992       1.83023249E-11
   7.19999981       1.91707084E-11
   7.32000017       1.70491260E-11
   7.44000006       1.14691572E-11
   7.55999994       2.42123400E-12
   7.67999983      -9.52513849E-12
   7.80000019      -2.31690101E-11
   7.92000008      -3.67187288E-11
   8.03999996      -4.79411615E-11
   8.15999985      -5.44199998E-11
   8.27999973      -5.39058763E-11
   8.39999962      -4.47215355E-11
   8.52000046      -2.61684320E-11
   8.64000034       1.13107353E-12
   8.76000023       3.50254513E-11
   8.88000011       7.18225202E-11
   9.00000000       1.06519002E-10
   9.11999989       1.33286590E-10
   9.23999977       1.46192239E-10
   9.35999966       1.40089260E-10
   9.47999954       1.11576311E-10
   9.60000038       5.98907243E-11
   9.72000027      -1.24133941E-11
   9.84000015      -9.91483423E-11
   9.96000004      -1.90655519E-10
   10.0799999      -2.74517020E-10
   10.1999998      -3.36815881E-10
   10.3199997      -3.63864050E-10
   10.4399996      -3.44234280E-10
   10.5600004      -2.70858280E-10
   10.6800003      -1.42903300E-10
   10.8000002       3.28799765E-11
   10.9200001       2.41622083E-10
   11.0400000       4.60830873E-10
   11.1599998       6.62031374E-10
   11.2799997       8.13523471E-10
   11.3999996       8.84077644E-10
   11.5200005       8.47233117E-10
   11.6400003       6.85732360E-10
   11.7600002       3.95537630E-10
   11.8800001      -1.11590173E-11
   12.0000000      -5.04476294E-10
   12.1199999      -1.03736897E-09
   12.2399998      -1.54838964E-09
   12.3599997      -1.96670369E-09
   12.4799995      -2.21911001E-09
   12.6000004      -2.23855134E-09
   12.7200003      -1.97335459E-09
   12.8400002      -1.39626122E-09
   12.9600000      -5.12204446E-10
   13.0799999       6.36214526E-10
   13.1999998       1.96648786E-09
   13.3199997       3.35792949E-09
   13.4399996       4.65778927E-09
   13.5600004       5.69180036E-09
   13.6800003       6.27879082E-09
   13.8000002       6.24855812E-09
   13.9200001       5.46182832E-09
   14.0400000       3.83075927E-09
   14.1599998       1.33822331E-09
   14.2799997      -1.94604310E-09
   14.3999996      -5.85434723E-09
   14.5200005      -1.01167874E-08
   14.6400003      -1.43653756E-08
   14.7600002      -1.81476612E-08
   14.8800001      -2.09504485E-08
   15.0000000      -2.22335856E-08
   15.1199999      -2.14730349E-08
   15.2399998      -1.82116455E-08
   15.3599997      -1.21152173E-08
   15.4799995      -3.03053493E-09
   15.6000004       8.95866048E-09
   15.7200003       2.34826203E-08
   15.8400002       3.98487288E-08
   15.9600000       5.70225112E-08
   16.0799999       7.36320658E-08
   16.2000008       8.80011157E-08
   16.3199997       9.82149970E-08
   16.4400005       1.02222408E-07
   16.5599995       9.79740946E-08
   16.6800003       8.35968805E-08
   16.7999992       5.75989674E-08
   16.9200001       1.90991116E-08
   17.0400009      -3.19309876E-08
   17.1599998      -9.44250473E-08
   17.2800007      -1.65997918E-07
   17.3999996      -2.42757892E-07
   17.5200005      -3.19175513E-07
   17.6399994      -3.88030145E-07
   17.7600002      -4.40452453E-07
   17.8799992      -4.66079882E-07
   18.0000000      -4.53335986E-07
   18.1200008      -3.89839244E-07
   18.2399998      -2.62938642E-07
   18.3600006      -6.03646484E-08
   18.4799995       2.29025616E-07
   18.6000004       6.14439330E-07
   18.7199993       1.10231417E-06
   18.8400002       1.69550754E-06
   18.9599991       2.39255974E-06
   19.0799999       3.18708703E-06
   19.2000008       4.06735307E-06
   19.3199997       5.01607565E-06
   19.4400005       6.01049624E-06
   19.5599995       7.02274929E-06
   19.6800003       8.02053455E-06
   19.7999992       8.96809524E-06
   19.9200001       9.82746042E-06
   20.0400009       1.05599229E-05
   20.1599998       1.11276822E-05
   20.2800007       1.14955774E-05
   20.3999996       1.16328147E-05
   20.5200005       1.15146122E-05
   20.6399994       1.11236513E-05
   20.7600002       1.04512683E-05
   20.8799992       9.49828154E-06
   21.0000000       8.27543954E-06
   21.1200008       6.80341100E-06
   21.2399998       5.11233293E-06
   21.3600006       3.24091434E-06
   21.4799995       1.23514371E-06
   21.6000004      -8.53347387E-07
   21.7199993      -2.96918597E-06
   21.8400002      -5.05533126E-06
   21.9599991      -7.05521961E-06
   22.0799999      -8.91488344E-06
   22.2000008      -1.05849431E-05
   22.3199997      -1.20223831E-05
   22.4400005      -1.31920442E-05
   22.5599995      -1.40677585E-05
   22.6800003      -1.46331104E-05
   22.7999992      -1.48817780E-05
   22.9200001      -1.48174868E-05
   23.0400009      -1.44535625E-05
   23.1599998      -1.38121495E-05
   23.2800007      -1.29231184E-05
   23.3999996      -1.18227317E-05
   23.5200005      -1.05521403E-05
   23.6399994      -9.15576493E-06
   23.7600002      -7.67963957E-06
   23.8799992      -6.16977968E-06
   24.0000000      -4.67063910E-06
   24.1200008      -3.22370624E-06
   24.2399998      -1.86628415E-06
   24.3600006      -6.30490604E-07
   24.4799995       4.57496611E-07
   24.6000004       1.37794007E-06
   24.7199993       2.11778183E-06
   24.8400002       2.67063501E-06
   24.9599991       3.03654292E-06
   25.0799999       3.22153392E-06
   25.2000008       3.23700624E-06
   25.3199997       3.09898110E-06
   25.4400005       2.82726114E-06
   25.5599995       2.44454077E-06
   25.6800003       1.97549912E-06
   25.7999992       1.44591456E-06
   25.9200001       8.81825656E-07
   26.0400009       3.08757706E-07
   26.1599998      -2.48969684E-07
   26.2800007      -7.68850214E-07
   26.3999996      -1.23071311E-06
   26.5200005      -1.61716378E-06
   26.6399994      -1.91395020E-06
   26.7600002      -2.11025940E-06
   26.8799992      -2.19894923E-06
   27.0000000      -2.17671550E-06
   27.1200008      -2.04419121E-06
   27.2399998      -1.80596578E-06
   27.3600006      -1.47051651E-06
   27.4799995      -1.05003164E-06
   27.6000004      -5.60112483E-07
   27.7199993      -1.93434051E-08
   27.8400002       5.51279300E-07
   27.9599991       1.12905491E-06
   28.0799999       1.69041084E-06
   28.2000008       2.21183495E-06
   28.3199997       2.67086966E-06
   28.4400005       3.04712603E-06
   28.5599995       3.32325590E-06
   28.6800003       3.48583535E-06
   28.7999992       3.52608981E-06
   28.9200001       3.44042041E-06
   29.0400009       3.23068548E-06
   29.1599998       2.90421190E-06
   29.2800007       2.47352364E-06
   29.3999996       1.95580128E-06
   29.5200005       1.37209702E-06
   29.6399994       7.46347837E-07
   29.7600002       1.04246809E-07
   29.8799992      -5.27964744E-07
   30.0000000      -1.12471332E-06
   30.1200008      -1.66225038E-06
   30.2399998      -2.11968995E-06
   30.3600006      -2.47987714E-06
   30.4799995      -2.73004980E-06
   30.6000004      -2.86227305E-06
   30.7199993      -2.87364060E-06
   30.8400002      -2.76624951E-06
   30.9599991      -2.54696852E-06
   31.0799999      -2.22702306E-06
   31.2000008      -1.82143299E-06
   31.3199997      -1.34833283E-06
   31.4400005      -8.28208329E-07
   31.5599995      -2.83076730E-07
   31.6800003       2.64362626E-07
   31.7999992       7.91586274E-07
   31.9200001       1.27709370E-06
   32.0400009       1.70122496E-06
   32.1599998       2.04693060E-06
   32.2799988       2.30047021E-06
   32.4000015       2.45202023E-06
   32.5200005       2.49615505E-06
   32.6399994       2.43218233E-06
   32.7599983       2.26429233E-06
   32.8800011       2.00150225E-06
   33.0000000       1.65737481E-06
   33.1199989       1.24949906E-06
   33.2400017       7.98743827E-07
   33.3600006       3.28300928E-07
   33.4799995      -1.37443791E-07
   33.5999985      -5.74155479E-07
   33.7200012      -9.58847181E-07
   33.8400002      -1.27115015E-06
   33.9599991      -1.49447760E-06
   34.0800018      -1.61700575E-06
   34.2000008      -1.63239940E-06
   34.3199997      -1.54023019E-06
   34.4399986      -1.34605057E-06
   34.5600014      -1.06111270E-06
   34.6800003      -7.01742465E-07
   34.7999992      -2.88408160E-07
   34.9199982       1.55462601E-07
   35.0400009       6.04840523E-07
   35.1599998       1.03454295E-06
   35.2799988       1.42068211E-06
   35.4000015       1.74202466E-06
   35.5200005       1.98118278E-06
   35.6399994       2.12556688E-06
   35.7599983       2.16805324E-06
   35.8800011       2.10733060E-06
   36.0000000       1.94791846E-06
   36.1199989       1.69986686E-06
   36.2400017       1.37815960E-06
   36.3600006       1.00186810E-06
   36.4799995       5.93104119E-07
   36.5999985       1.75831701E-07
   36.7200012      -2.25397002E-07
   36.8400002      -5.86722422E-07
   36.9599991      -8.86212206E-07
   37.0800018      -1.10499582E-06
   37.2000008      -1.22824974E-06
   37.3199997      -1.24598989E-06
   37.4399986      -1.15364003E-06
   37.5600014      -9.52346511E-07
   37.6800003      -6.49027527E-07
   37.7999992      -2.56146564E-07
   37.9199982       2.08781799E-07
   38.0400009       7.23940047E-07
   38.1599998       1.26418036E-06
   38.2799988       1.80218228E-06
   38.4000015       2.30974319E-06
   38.5200005       2.75914408E-06
   38.6399994       3.12451812E-06
   38.7599983       3.38315704E-06
   38.8800011       3.51668268E-06
   39.0000000       3.51201970E-06
   39.1199989       3.36211770E-06
   39.2400017       3.06638026E-06
   39.3600006       2.63078186E-06
   39.4799995       2.06766435E-06
   39.5999985       1.39523513E-06
   39.7200012       6.36792436E-07
   39.8400002      -1.80265033E-07
   39.9599991      -1.02559272E-06
   40.0800018      -1.86715010E-06
   40.2000008      -2.67248311E-06
   40.3199997      -3.40997667E-06
   40.4399986      -4.05002947E-06
   40.5600014      -4.56610496E-06
   40.6800003      -4.93563766E-06
   40.7999992      -5.14077055E-06
   40.9199982      -5.16892760E-06
   41.0400009      -5.01321665E-06
   41.1599998      -4.67267591E-06
   41.2799988      -4.15237400E-06
   41.4000015      -3.46336083E-06
   41.5200005      -2.62249182E-06
   41.6399994      -1.65210611E-06
   41.7599983      -5.79570099E-07
   41.8800011       5.63332662E-07
   42.0000000       1.74116553E-06
   42.1199989       2.91576612E-06
   42.2400017       4.04733146E-06
   42.3600006       5.09565234E-06
   42.4799995       6.02147020E-06
   42.5999985       6.78791912E-06
   42.7200012       7.36200036E-06
   42.8400002       7.71603391E-06
   42.9599991       7.82899679E-06
   43.0800018       7.68769041E-06
   43.2000008       7.28765144E-06
   43.3199997       6.63373794E-06
   43.4399986       5.74033720E-06
   43.5600014       4.63115748E-06
   43.6800003       3.33858907E-06
   43.7999992       1.90264996E-06
   43.9199982       3.69545830E-07
   44.0400009      -1.21008623E-06
   44.1599998      -2.78317043E-06
   44.2799988      -4.29632200E-06
   44.4000015      -5.69800704E-06
   44.5200005      -6.94062146E-06
   44.6399994      -7.98239034E-06
   44.7599983      -8.78898572E-06
   44.8800011      -9.33480624E-06
   45.0000000      -9.60384932E-06
   45.1199989      -9.59016688E-06
   45.2400017      -9.29787620E-06
   45.3600006      -8.74077705E-06
   45.4799995      -7.94158677E-06
   45.5999985      -6.93085894E-06
   45.7200012      -5.74564865E-06
   45.8400002      -4.42799319E-06
   45.9599991      -3.02327544E-06
   46.0800018      -1.57854220E-06
   46.2000008      -1.40831986E-07
   46.3199997       1.24443193E-06
   46.4399986       2.53493772E-06
   46.5600014       3.69283316E-06
   46.6800003       4.68589587E-06
   46.7999992       5.48849812E-06
   46.9199982       6.08234132E-06
   47.0400009       6.45694718E-06
   47.1599998       6.60987553E-06
   47.2799988       6.54666792E-06
   47.4000015       6.28049702E-06
   47.5200005       5.83152587E-06
   47.6399994       5.22598157E-06
   47.7599983       4.49496838E-06
   47.8800011       3.67306211E-06
   48.0000000       2.79673145E-06
   48.1199989       1.90267065E-06
   48.2400017       1.02611546E-06
   48.3600006       1.99244099E-07
   48.4799995      -5.50247080E-07
   48.5999985      -1.20030359E-06
   48.7200012      -1.73533533E-06
   48.8400002      -2.14665056E-06
   48.9599991      -2.43247314E-06
   49.0800018      -2.59754961E-06
   49.2000008      -2.65237895E-06
   49.3199997      -2.61212699E-06
   49.4399986      -2.49531081E-06
   49.5600014      -2.32234993E-06
   49.6800003      -2.11409019E-06
   49.7999992      -1.89040327E-06
   49.9199982      -1.66895438E-06
   50.0400009      -1.46421200E-06
   50.1599998      -1.28675345E-06
   50.2799988      -1.14289514E-06
   50.4000015      -1.03465220E-06
   50.5200005      -9.60005536E-07
   50.6399994      -9.13441284E-07
   50.7599983      -8.86703845E-07
   50.8800011      -8.69700159E-07
   51.0000000      -8.51482127E-07
   51.1199989      -8.21236654E-07
   51.2400017      -7.69216001E-07
   51.3600006      -6.87548606E-07
   51.4799995      -5.70881866E-07
   51.5999985      -4.16822445E-07
   51.7200012      -2.26152650E-07
   51.8400002      -2.81763390E-09
   51.9599991       2.46306712E-07
   52.0800018       5.11844121E-07
   52.2000008       7.82511620E-07
   52.3199997       1.04583364E-06
   52.4399986       1.28893032E-06
   52.5600014       1.49932839E-06
   52.6800003       1.66574421E-06
   52.7999992       1.77879679E-06
   52.9199982       1.83160671E-06
   53.0400009       1.82025099E-06
   53.1599998       1.74404715E-06
   53.2799988       1.60565196E-06
   53.4000015       1.41096552E-06
   53.5200005       1.16884405E-06
   53.6399994       8.90630076E-07
   53.7599983       5.89521960E-07
   53.8800011       2.79812440E-07
   54.0000000      -2.39624836E-08
   54.1199989      -3.07916196E-07
   54.2400017      -5.59688488E-07
   54.3600006      -7.69245162E-07
   54.4799995      -9.29539397E-07
   54.5999985      -1.03697653E-06
   54.7200012      -1.09163545E-06
   54.8400002      -1.09721429E-06
   54.9599991      -1.06068592E-06
   55.0800018      -9.91677894E-07
   55.2000008      -9.01610406E-07
   55.3199997      -8.02655734E-07
   55.4399986      -7.06599451E-07
   55.5600014      -6.23703386E-07
   55.6800003      -5.61672948E-07
   55.7999992      -5.24832501E-07
   55.9199982      -5.13596603E-07
   56.0400009      -5.24303687E-07
   56.1599998      -5.49447407E-07
   56.2799988      -5.78304991E-07
   56.4000015      -5.97922110E-07
   56.5200005      -5.94378832E-07
   56.6399994      -5.54229871E-07
   56.7599983      -4.65987966E-07
   56.8800011      -3.21512204E-07
   57.0000000      -1.17161562E-07
   57.1199989       1.45406801E-07
   57.2400017       4.58889104E-07
   57.3600006       8.10489894E-07
   57.4799995       1.18259015E-06
   57.5999985       1.55388886E-06
   57.7200012       1.90093215E-06
   57.8400002       2.19990397E-06
   57.9599991       2.42852593E-06
   58.0800018       2.56789599E-06
   58.2000008       2.60410047E-06
   58.3199997       2.52945051E-06
   58.4399986       2.34322943E-06
   58.5600014       2.05187575E-06
   58.6800003       1.66858865E-06
   58.7999992       1.21238384E-06
   58.9199982       7.06691367E-07
   59.0400009       1.77616457E-07
   59.1599998      -3.47978869E-07
   59.2799988      -8.44404894E-07
   59.4000015      -1.28891941E-06
   59.5200005      -1.66320172E-06
   59.6399994      -1.95441226E-06
   59.7599983      -2.15576506E-06
   59.8800011      -2.26658949E-06
   60.0000000      -2.29190118E-06
   60.1199989      -2.24154792E-06
   60.2400017      -2.12902751E-06
   60.3600006      -1.97010036E-06
   60.4799995      -1.78132291E-06
   60.5999985      -1.57863519E-06
   60.7200012      -1.37610937E-06
   60.8400002      -1.18495734E-06
   60.9599991      -1.01285343E-06
   61.0800018      -8.63608761E-07
   61.2000008      -7.37194341E-07
   61.3199997      -6.30087698E-07
   61.4399986      -5.35893321E-07
   61.5600014      -4.46170191E-07
   61.6800003      -3.51390895E-07
   61.7999992      -2.41953018E-07
   61.9199982      -1.09166066E-07
   62.0400009       5.38563754E-08
   62.1599998       2.51457209E-07
   62.2799988       4.84894372E-07
   62.4000015       7.52027233E-07
   62.5200005       1.04724506E-06
   62.6399994       1.36163430E-06
   62.7599983       1.68337101E-06
   62.8800011       1.99830379E-06
   63.0000000       2.29069315E-06
   63.1199989       2.54405609E-06
   63.2400017       2.74206332E-06
   63.3600006       2.86944055E-06
   63.4799995       2.91282367E-06
   63.5999985       2.86152431E-06
   63.7200012       2.70817623E-06
   63.8400002       2.44923149E-06
   63.9599991       2.08529968E-06
   64.0800018       1.62132164E-06
   64.1999969       1.06657956E-06
   64.3199997       4.34549094E-07
   64.4400024      -2.57397687E-07
   64.5599976      -9.88431566E-07
   64.6800003      -1.73484409E-06
   64.8000031      -2.47075809E-06
   64.9199982      -3.16896785E-06
   65.0400009      -3.80190045E-06
   65.1600037      -4.34268577E-06
   65.2799988      -4.76630748E-06
   65.4000015      -5.05080016E-06
   65.5199966      -5.17843182E-06
   65.6399994      -5.13681334E-06
   65.7600021      -4.91985566E-06
   65.8799973      -4.52848872E-06
   66.0000000      -3.97107624E-06
   66.1200027      -3.26345435E-06
   66.2399979      -2.42856208E-06
   66.3600006      -1.49564369E-06
   66.4800034      -4.99046337E-07
   66.5999985       5.23333256E-07
   66.7200012       1.53186977E-06
   66.8399963       2.48718675E-06
   66.9599991       3.35216578E-06
   67.0800018       4.09385029E-06
   67.1999969       4.68512599E-06
   67.3199997       5.10605105E-06
   67.4400024       5.34476021E-06
   67.5599976       5.39788152E-06
   67.6800003       5.27044358E-06
   67.8000031       4.97529118E-06
   67.9199982       4.53206212E-06
   68.0400009       3.96580072E-06
   68.1600037       3.30531998E-06
   68.2799988       2.58143132E-06
   68.4000015       1.82517044E-06
   68.5199966       1.06613970E-06
   68.6399994       3.31080940E-07
   68.7600021      -3.57238747E-07
   68.8799973      -9.80767481E-07
   69.0000000      -1.52651273E-06
   69.1200027      -1.98649991E-06
   69.2399979      -2.35738776E-06
   69.3600006      -2.63981178E-06
   69.4800034      -2.83754412E-06
   69.5999985      -2.95656605E-06
   69.7200012      -3.00415331E-06
   69.8399963      -2.98805185E-06
   69.9599991      -2.91581159E-06
   70.0800018      -2.79431765E-06
   70.1999969      -2.62952653E-06
   70.3199997      -2.42640249E-06
   70.4400024      -2.18901710E-06
   70.5599976      -1.92077255E-06
   70.6800003      -1.62469951E-06
   70.8000031      -1.30378623E-06
   70.9199982      -9.61298042E-07
   71.0400009      -6.01060776E-07
   71.1600037      -2.27689100E-07
   71.2799988       1.53252188E-07
   71.4000015       5.35160154E-07
   71.5199966       9.10384017E-07
   71.6399994       1.27030012E-06
   71.7600021       1.60547791E-06
   71.8799973       1.90594324E-06
   72.0000000       2.16154240E-06
   72.1200027       2.36240294E-06
   72.2399979       2.49947630E-06
   72.3600006       2.56513408E-06
   72.4800034       2.55378063E-06
   72.5999985       2.46242917E-06
   72.7200012       2.29118655E-06