  -30.0000000       0.00000000    
  -29.8799992       0.00000000    
  -29.7600002       0.00000000    
  -29.6399994       0.00000000    
  -29.5200005       0.00000000    
  -29.3999996      -0.00000000    
  -29.2800007      -3.22298647E-44
  -29.1599998      -2.87266185E-43
  -29.0400009      -3.27903841E-43
  -28.9200001       7.22789748E-42
  -28.7999992       4.66954687E-41
  -28.6800003       1.37880762E-40
  -28.5599995       1.62420301E-40
  -28.4400005      -3.75356011E-40
  -28.3199997      -2.31785136E-39
  -28.2000008      -5.73343228E-39
  -28.0799999      -7.36096899E-39
  -27.9599991       1.28592676E-39
  -27.8400002       2.95071950E-38
  -27.7199993       7.14018909E-38
  -27.6000004       8.38392443E-38
  -27.4799995      -1.49945256E-38
  -27.3600006      -2.86576141E-37
  -27.2399998      -6.39597371E-37
  -27.1200008      -6.97308940E-37
  -27.0000000       1.54693642E-37
  -26.8799992       2.34389262E-36
  -26.7600002       5.31877078E-36
  -26.6399994       6.83372321E-36
  -26.5200005       3.17683805E-36
  -26.3999996      -8.84929998E-36
  -26.2800007      -2.83060159E-35
  -26.1599998      -4.66188088E-35
  -26.0400009      -4.73969252E-35
  -25.9200001      -1.25350272E-35
  -25.7999992       6.53487845E-35
  -25.6800003       1.69053238E-34
  -25.5599995       2.50768439E-34
  -25.4400005       2.43112252E-34
  -25.3199997       8.96726325E-35
  -25.2000008      -2.14536329E-34
  -25.0799999      -5.93529689E-34
  -24.9599991      -8.94781157E-34
  -24.8400002      -9.38651341E-34
  -24.7199993      -6.00019612E-34
  -24.6000004       1.14783327E-34
  -24.4799995       1.04114774E-33
  -24.3600006       1.90667553E-33
  -24.2399998       2.44425334E-33
  -24.1200008       2.50726241E-33
  -24.0000000       2.10710687E-33
  -23.8799992       1.32414838E-33
  -23.7600002       1.23930085E-34
  -23.6399994      -1.79344622E-33
  -23.5200005      -4.93262482E-33
  -23.3999996      -9.60748798E-33
  -23.2800007      -1.52653649E-32
  -23.1599998      -1.98337327E-32
  -23.0400009      -1.95856975E-32
  -22.9200001      -1.00072494E-32
  -22.7999992       1.21710310E-32
  -22.6800003       4.62058735E-32
  -22.5599995       8.49188815E-32
  -22.4400005       1.14087581E-31
  -22.3199997       1.14917433E-31
  -22.2000008       6.99456990E-32
  -22.0799999      -2.87174298E-32
  -21.9599991      -1.71381599E-31
  -21.8400002      -3.26427188E-31
  -21.7199993      -4.42732362E-31
  -21.6000004      -4.60368539E-31
  -21.4799995      -3.28450448E-31
  -21.3600006      -2.61996679E-32
  -21.2399998       4.18841097E-31
  -21.1200008       9.22150304E-31
  -21.0000000       1.34860517E-30
  -20.8799992       1.53635438E-30
  -20.7600002       1.33633376E-30
  -20.6399994       6.60750312E-31
  -20.5200005      -4.70459970E-31
  -20.3999996      -1.89887665E-30
  -20.2800007      -3.32606371E-30
  -20.1599998      -4.35087059E-30
  -20.0400009      -4.54725301E-30
  -19.9200001      -3.57331437E-30
  -19.7999992      -1.29063459E-30
  -19.6800003       2.13583562E-30
  -19.5599995       6.18938702E-30
  -19.4400005       1.00303312E-29
  -19.3199997       1.26127587E-29
  -19.2000008       1.28801320E-29
  -19.0799999       1.00108928E-29
  -18.9599991       3.67133104E-30
  -18.8400002      -5.77225542E-30
  -18.7199993      -1.71270181E-29
  -18.6000004      -2.83703323E-29
  -18.4799995      -3.68004106E-29
  -18.3600006      -3.93655567E-29
  -18.2399998      -3.31881635E-29
  -18.1200008      -1.62779840E-29
  -18.0000000       1.16160855E-29
  -17.8799992       4.81410294E-29
  -17.7600002       8.76819029E-29
  -17.6399994       1.21221666E-28
  -17.5200005       1.37071191E-28
  -17.3999996       1.22765792E-28
  -17.2800007       6.82261826E-29
  -17.1599998      -3.00766009E-29
  -17.0400009      -1.64701268E-28
  -16.9200001      -3.13836399E-28
  -16.7999992      -4.40594849E-28
  -16.6800003      -4.96729448E-28
  -16.5599995      -4.31975061E-28
  -16.4400005      -2.08966456E-28
  -16.3199997       1.78282191E-28
  -16.2000008       6.86711988E-28
  -16.0799999       1.21385298E-27
  -15.9600000       1.60216273E-27
  -15.8400002       1.66420165E-27
  -15.7200003       1.23058526E-27
  -15.6000004       2.15548611E-28
  -15.4799995      -1.31396118E-27
  -15.3599997      -3.08810232E-27
  -15.2399998      -4.62975879E-27
  -15.1199999      -5.31984722E-27
  -15.0000000      -4.54310889E-27
  -14.8800001      -1.90191244E-27
  -14.7600002       2.54448337E-27
  -14.6400003       8.08706227E-27
  -14.5200005       1.33102436E-26
  -14.3999996       1.62552878E-26
  -14.2799997       1.48503065E-26
  -14.1599998       7.58144942E-27
  -14.0400000      -5.71663154E-27
  -13.9200001      -2.31717075E-26
  -13.8000002      -4.05746323E-26
  -13.6800003      -5.17564614E-26
  -13.5600004      -4.98266642E-26
  -13.4399996      -2.92436284E-26
  -13.3199997       1.16138260E-26
  -13.1999998       6.80326833E-26
  -13.0799999       1.27619945E-25
  -12.9600000       1.70989373E-25
  -12.8400002       1.75192596E-25
  -12.7200003       1.19993016E-25
  -12.6000004      -3.84977449E-27
  -12.4799995      -1.86192584E-25
  -12.3599997      -3.91847180E-25
  -12.2399998      -5.60854663E-25
  -12.1199999      -6.17372208E-25
  -12.0000000      -4.88159602E-25
  -11.8800001      -1.28850297E-25
  -11.7600002       4.47286845E-25
  -11.6400003       1.14668269E-24
  -11.5200005       1.78940435E-24
  -11.3999996       2.12946533E-24
  -11.2799997       1.90693082E-24
  -11.1599998       9.29094638E-25
  -11.0400000      -8.32990770E-25
  -10.9200001      -3.15777628E-24
  -10.8000002      -5.52975126E-24
  -10.6800003      -7.17375277E-24
  -10.5600004      -7.19165833E-24
  -10.4399996      -4.80355904E-24
  -10.3199997       3.37943229E-25
  -10.1999998       7.83006137E-24
  -10.0799999       1.63015503E-23
  -9.96000004       2.34111829E-23
  -9.84000015       2.61633450E-23
  -9.72000027       2.15839633E-23
  -9.60000038       7.70283310E-24
  -9.47999954      -1.53351815E-23
  -9.35999966      -4.43304172E-23
  -9.23999977      -7.26423196E-23
  -9.11999989      -9.07357658E-23
  -9.00000000      -8.79127356E-23
  -8.88000011      -5.52184458E-23
  -8.76000023       1.08685721E-23
  -8.64000034       1.04780822E-22
  -8.52000046       2.09420798E-22
  -8.39999962       2.96267378E-22
  -8.27999973       3.29162828E-22
  -8.15999985       2.72267529E-22
  -8.03999996       1.01576545E-22
  -7.92000008      -1.82001495E-22
  -7.80000019      -5.41403090E-22
  -7.67999983      -8.98371864E-22
  -7.55999994      -1.13903285E-21
  -7.44000006      -1.13317675E-21
  -7.32000017      -7.67491888E-22
  -7.19999981       1.12401619E-23
  -7.07999992       1.15186193E-21
  -6.96000004       2.46668470E-21
  -6.84000015       3.62691759E-21
  -6.71999979       4.19962707E-21
  -6.59999990       3.73371557E-21
  -6.48000002       1.89076868E-21
  -6.36000013      -1.39898658E-21
  -6.23999977      -5.79193561E-21
  -6.11999989      -1.04468420E-20
  -6.00000000      -1.40542074E-20
  -5.88000011      -1.50218116E-20
  -5.76000023      -1.18307564E-20
  -5.63999987      -3.53137257E-21
  -5.51999998       9.70773755E-21
  -5.40000010       2.61392515E-20
  -5.28000021       4.22440493E-20
  -5.15999985       5.29844661E-20
  -5.03999996       5.26294311E-20
  -4.92000008       3.61626012E-20
  -4.80000019       1.11569075E-21
  -4.67999983      -5.05283180E-20
  -4.55999994      -1.10897003E-19
  -4.44000006      -1.65892545E-19
  -4.32000017      -1.96554244E-19
  -4.19999981      -1.82481898E-19
  -4.07999992      -1.07237000E-19
  -3.96000004       3.49787959E-20
  -3.83999991       2.32756010E-19
  -3.72000003       4.52997397E-19
  -3.59999990       6.40776030E-19
  -3.48000002       7.25525233E-19
  -3.35999990       6.34604022E-19
  -3.24000001       3.13612811E-19
  -3.11999989      -2.49395368E-19
  -3.00000000      -1.00106225E-18
  -2.88000011      -1.80843065E-18
  -2.75999999      -2.46117189E-18
  -2.64000010      -2.69711793E-18
  -2.51999998      -2.25425370E-18
  -2.40000010      -9.46214177E-19
  -2.27999997       1.24965081E-18
  -2.16000009       4.11099790E-18
  -2.03999996       7.12203335E-18
  -1.91999996       9.48623879E-18
  -1.79999995       1.02241401E-17
  -1.67999995       8.36678879E-18
  -1.55999994       3.23382952E-18
  -1.44000006      -5.24335728E-18
  -1.32000005      -1.62228134E-17
  -1.20000005      -2.77707825E-17
  -1.08000004      -3.69004973E-17
 -0.959999979      -3.99184493E-17
 -0.839999974      -3.31207981E-17
 -0.720000029      -1.38067214E-17
 -0.600000024       1.85243839E-17
 -0.479999989       6.10324495E-17
 -0.360000014       1.06783908E-16
 -0.239999995       1.44759175E-16
 -0.119999997       1.60954617E-16
  -1.11022302E-15   1.40772085E-16
  0.119999997       7.26346766E-17
  0.239999995      -4.75764146E-17
  0.360000014      -2.12058139E-16
  0.479999989      -3.97736841E-16
  0.600000024      -5.65384434E-16
  0.720000029      -6.62497449E-16
  0.839999974      -6.30842981E-16
  0.959999979      -4.18786350E-16
   1.08000004       2.62922542E-18
   1.20000005       6.22247503E-16
   1.32000005       1.37374387E-15
   1.44000006       2.12766990E-15
   1.55999994       2.69556949E-15
   1.67999995       2.85027963E-15
   1.79999995       2.36437071E-15
   1.91999996       1.06516786E-15
   2.03999996      -1.09977466E-15
   2.16000009      -3.99781255E-15
   2.27999997      -7.26243169E-15
   2.40000010      -1.02785695E-14
   2.51999998      -1.22194972E-14
   2.64000010      -1.21480466E-14
   2.75999999      -9.18543789E-15
   2.88000011      -2.73711391E-15
   3.00000000       7.25204368E-15
   3.11999989       2.00581027E-14
   3.24000001       3.40134313E-14
   3.35999990       4.64831522E-14
   3.48000002       5.40439004E-14
   3.59999990       5.29063216E-14
   3.72000003       3.95864067E-14
   3.83999991       1.17799659E-14
   3.96000004      -3.06655641E-14
   4.07999992      -8.48481238E-14
   4.19999981      -1.44191300E-13
   4.32000017      -1.98343891E-13
   4.44000006      -2.33816872E-13
   4.55999994      -2.35507279E-13
   4.67999983      -1.89135017E-13
   4.80000019      -8.44468131E-14
   4.92000008       8.11627444E-14
   5.03999996       2.99170275E-13
   5.15999985       5.47313713E-13
   5.28000021       7.88675765E-13
   5.40000010       9.73249259E-13
   5.51999998       1.04258366E-12
   5.63999987       9.37737301E-13
   5.76000023       6.10228177E-13
   5.88000011       3.50126490E-14
   6.00000000      -7.76180606E-13
   6.11999989      -1.76346871E-12
   6.23999977      -2.81211989E-12
   6.36000013      -3.75336264E-12
   6.48000002      -4.37513350E-12
   6.59999990      -4.44425746E-12
   6.71999979      -3.74006685E-12
   6.84000015      -2.09748581E-12
   6.96000004       5.44642239E-13
   7.07999992       4.09646622E-12
   7.19999981       8.27963999E-12
   7.32000017       1.26088575E-11
   7.44000006       1.64017012E-11
   7.55999994       1.88243778E-11
   7.67999983       1.89774828E-11
   7.80000019       1.60207628E-11
   7.92000008       9.32931857E-12
   8.03999996      -1.33357442E-12
   8.15999985      -1.56490636E-11
   8.27999973      -3.26085617E-11
   8.39999962      -5.04439789E-11
   8.52000046      -6.66530026E-11
   8.64000034      -7.81447893E-11
   8.76000023      -8.15209983E-11
   8.88000011      -7.34911507E-11
   9.00000000      -5.14013936E-11
   9.11999989      -1.38328021E-11
   9.23999977       3.87971634E-11
   9.35999966       1.03716306E-10
   9.47999954       1.75461146E-10
   9.60000038       2.45823584E-10
   9.72000027       3.04170550E-10
   9.84000015       3.38200551E-10
   9.96000004       3.35157208E-10
   10.0799999       2.83464613E-10
   10.1999998       1.74680659E-10
   10.3199997       5.59462242E-12
   10.4399996      -2.19772270E-10
   10.5600004      -4.88555862E-10
   10.6800003      -7.78148712E-10
   10.8000002      -1.05632381E-09
   10.9200001      -1.28264654E-09
   11.0400000      -1.41134537E-09
   11.1599998      -1.39566747E-09
   11.2799997      -1.19357024E-09
   11.3999996      -7.74389719E-10
   11.5200005      -1.25915861E-10
   11.6400003       7.38891281E-10
   11.7600002       1.77645887E-09
   11.8800001       2.90942892E-09
   12.0000000       4.02672118E-09
   12.1199999       4.98766317E-09
   12.2399998       5.63073010E-09
   12.3599997       5.78705439E-09
   12.4799995       5.29832134E-09
   12.6000004       4.03810185E-09
   12.7200003       1.93502303E-09
   12.8400002      -1.00437902E-09
   12.9600000      -4.67579531E-09
   13.0799999      -8.86319995E-09
   13.1999998      -1.32338238E-08
   13.3199997      -1.73447461E-08
   13.4399996      -2.06631814E-08
   13.5600004      -2.26015562E-08
   13.6800003      -2.25671180E-08
   13.8000002      -2.00242827E-08
   13.9200001      -1.45661359E-08
   14.0400000      -5.98981886E-09
   14.1599998       5.63108538E-09
   14.2799997       1.98852064E-08
   14.3999996       3.59818024E-08
   14.5200005       5.27375335E-08
   14.6400003       6.85992561E-08
   14.7600002       8.17086132E-08
   14.8800001       9.00114046E-08
   15.0000000       9.14109179E-08
   15.1199999       8.39603231E-08
   15.2399998       6.60844748E-08
   15.3599997       3.68165622E-08
   15.4799995      -3.96861077E-09
   15.6000004      -5.53469199E-08
   15.7200003      -1.15186538E-07
   15.8400002      -1.80063040E-07
   15.9600000      -2.45270598E-07
   16.0799999      -3.04947491E-07
   16.2000008      -3.52328414E-07
   16.3199997      -3.80127887E-07
   16.4400005      -3.81048608E-07
   16.5599995      -3.48399197E-07
   16.6800003      -2.76792917E-07
   16.7999992      -1.62889819E-07
   16.9200001      -6.13525497E-09
   17.0400009       1.90559675E-07
   17.1599998       4.20252633E-07
   17.2800007       6.71576686E-07
   17.3999996       9.28572376E-07
   17.5200005       1.17078855E-06
   17.6399994       1.37368318E-06
   17.7600002       1.50934068E-06
   17.8799992       1.54749807E-06
   18.0000000       1.45685908E-06
   18.1200008       1.20664856E-06
   18.2399998       7.68341863E-07
   18.3600006       1.17488945E-07
   18.4799995      -7.64463778E-07
   18.6000004      -1.88845434E-06
   18.7199993      -3.25629776E-06
   18.8400002      -4.85948703E-06
   18.9599991      -6.67839277E-06
   19.0799999      -8.68194456E-06
   19.2000008      -1.08278282E-05
   19.3199997      -1.30632443E-05
   19.4400005      -1.53262135E-05
   19.5599995      -1.75474070E-05
   19.6800003      -1.96524215E-05
   19.7999992      -2.15644468E-05
   19.9200001      -2.32071852E-05
   20.0400009      -2.45079191E-05
   20.1599998      -2.54005608E-05
   20.2800007      -2.58285909E-05
   20.3999996      -2.57476895E-05
   20.5200005      -2.51279816E-05
   20.6399994      -2.39557448E-05
   20.7600002      -2.22345316E-05
   20.8799992      -1.99855931E-05
   21.0000000      -1.72476248E-05
   21.1200008      -1.40758020E-05
   21.2399998      -1.05401487E-05
   21.3600006      -6.72329361E-06
   21.4799995      -2.71772319E-06
   21.6000004       1.37736401E-06
   21.7199993       5.45947341E-06
   21.8400002       9.42634324E-06
   21.9599991       1.31794504E-05
   22.0799999       1.66273348E-05
   22.2000008       1.96886176E-05
   22.3199997       2.22946037E-05
   22.4400005       2.43913419E-05
   22.5599995       2.59410899E-05
   22.6800003       2.69231768E-05
   22.7999992       2.73341702E-05
   22.9200001       2.71874596E-05
   23.0400009       2.65122289E-05
   23.1599998       2.53519283E-05
   23.2800007       2.37623080E-05
   23.3999996       2.18091300E-05
   23.5200005       1.95656412E-05
   23.6399994       1.71099346E-05
   23.7600002       1.45222984E-05
   23.8799992       1.18826183E-05
   24.0000000       9.26793473E-06
   24.1200008       6.75023648E-06
   24.2399998       4.39449514E-06
   24.3600006       2.25702456E-06
   24.4799995       3.84162973E-07
   24.6000004      -1.18869957E-06
   24.7199993      -2.43774184E-06
   24.8400002      -3.35098230E-06
   24.9599991      -3.92820084E-06
   25.0799999      -4.18052059E-06
   25.2000008      -4.12966301E-06
   25.3199997      -3.80688607E-06
   25.4400005      -3.25163182E-06
   25.5599995      -2.50991138E-06
   25.6800003      -1.63246671E-06
   25.7999992      -6.72755561E-07
   25.9200001       3.15169814E-07
   26.0400009       1.27882311E-06
   26.1599998       2.16939634E-06
   26.2800007       2.94373513E-06
   26.3999996       3.56608484E-06
   26.5200005       4.00951785E-06
   26.6399994       4.25696680E-06
   26.7600002       4.30179443E-06
   26.8799992       4.14787155E-06
   27.0000000       3.80913525E-06
   27.1200008       3.30865032E-06
   27.2399998       2.67721907E-06
   27.3600006       1.95160669E-06
   27.4799995       1.17248237E-06
   27.6000004       3.82186556E-07
   27.7199993      -3.77544353E-07
   27.8400002      -1.06777554E-06
   27.9599991      -1.65436734E-06
   28.0799999      -2.10965914E-06
   28.2000008      -2.41375847E-06
   28.3199997      -2.55537293E-06
   28.4400005      -2.53215558E-06
   28.5599995      -2.35056177E-06
   28.6800003      -2.02524529E-06
   28.7999992      -1.57803959E-06
   28.9200001      -1.03660648E-06
   29.0400009      -4.32829069E-07
   29.1599998       1.98951213E-07
   29.2800007       8.23760672E-07
   29.3999996       1.40778593E-06
   29.5200005       1.92005018E-06
   29.6399994       2.33389687E-06
   29.7600002       2.62822300E-06
   29.8799992       2.78841253E-06
   30.0000000       2.80694121E-06
   30.1200008       2.68363488E-06
   30.2399998       2.42557849E-06
   30.3600006       2.04668640E-06
   30.4799995       1.56695739E-06
   30.6000004       1.01144462E-06
   30.7199993       4.08990843E-07
   30.8400002      -2.09222335E-07
   30.9599991      -8.11242558E-07
   31.0799999      -1.36596532E-06
   31.2000008      -1.84472583E-06
   31.3199997      -2.22278777E-06
   31.4400005      -2.48065044E-06
   31.5599995      -2.60510706E-06
   31.6800003      -2.58999057E-06
   31.7999992      -2.43656064E-06
   31.9200001      -2.15350019E-06
   32.0400009      -1.75651519E-06
   32.1599998      -1.26755117E-06
   32.2799988      -7.13659631E-07
   32.4000015      -1.25576605E-07
   32.5200005       4.63912045E-07
   32.6399994       1.02172578E-06
   32.7599983       1.51626648E-06
   32.8800011       1.91911431E-06
   33.0000000       2.20654488E-06
   33.1199989       2.36078404E-06
   33.2400017       2.37092695E-06
   33.3600006       2.23347524E-06
   33.4799995       1.95246889E-06
   33.5999985       1.53921064E-06
   33.7200012       1.01160970E-06
   33.8400002       3.93188117E-07
   33.9599991      -2.88185021E-07
   34.0800018      -1.00175521E-06
   34.2000008      -1.71545742E-06
   34.3199997      -2.39751671E-06
   34.4399986      -3.01799241E-06
   34.5600014      -3.55018733E-06
   34.6800003      -3.97185886E-06
   34.7999992      -4.26617635E-06
   34.9199982      -4.42238888E-06
   35.0400009      -4.43618228E-06
   35.1599998      -4.30970795E-06
   35.2799988      -4.05131550E-06
   35.4000015      -3.67497637E-06
   35.5200005      -3.19947048E-06
   35.6399994      -2.64735036E-06
   35.7599983      -2.04375442E-06
   35.8800011      -1.41512226E-06
   36.0000000      -7.87880879E-07
   36.1199989      -1.87164503E-07
   36.2400017       3.64363615E-07
   36.3600006       8.47528383E-07
   36.4799995       1.24744565E-06
   36.5999985       1.55406883E-06
   36.7200012       1.76245112E-06
   36.8400002       1.87271291E-06
   36.9599991       1.88971967E-06
   37.0800018       1.82249585E-06
   37.2000008       1.68341796E-06
   37.3199997       1.48724268E-06
   37.4399986       1.25004090E-06
   37.5600014       9.88111310E-07
   37.6800003       7.16952229E-07
   37.7999992       4.50361341E-07
   37.9199982       1.99724511E-07
   38.0400009      -2.64620112E-08
   38.1599998      -2.22811934E-07
   38.2799988      -3.87009209E-07
   38.4000015      -5.19528214E-07
   38.5200005      -6.23152800E-07
   38.6399994      -7.02350576E-07
   38.7599983      -7.62566913E-07
   38.8800011      -8.09507924E-07
   39.0000000      -8.48479942E-07
   39.1199989      -8.83838993E-07
   39.2400017      -9.18594594E-07
   39.3600006      -9.54190000E-07
   39.4799995      -9.90462922E-07
   39.5999985      -1.02577417E-06
   39.7200012      -1.05727304E-06
   39.8400002      -1.08125960E-06
   39.9599991      -1.09359723E-06
   40.0800018      -1.09012876E-06
   40.2000008      -1.06705431E-06
   40.3199997      -1.02123988E-06
   40.4399986      -9.50435435E-07
   40.5600014      -8.53396216E-07
   40.6800003      -7.29913666E-07
   40.7999992      -5.80772564E-07
   40.9199982      -4.07657268E-07
   41.0400009      -2.13033559E-07
   41.1599998      -3.08589959E-11
   41.2799988       2.27655590E-07
   41.4000015       4.65830908E-07
   41.5200005       7.09833444E-07
   41.6399994       9.54541179E-07
   41.7599983       1.19436663E-06
   41.8800011       1.42326257E-06
   42.0000000       1.63475795E-06
   42.1199989       1.82204985E-06
   42.2400017       1.97816394E-06
   42.3600006       2.09619384E-06
   42.4799995       2.16961848E-06
   42.5999985       2.19268395E-06
   42.7200012       2.16082412E-06
   42.8400002       2.07109110E-06
   42.9599991       1.92255516E-06
   43.0800018       1.71662691E-06
   43.2000008       1.45726949E-06
   43.3199997       1.15106013E-06
   43.4399986       8.07080824E-07
   43.5600014       4.36625243E-07
   43.6800003       5.27278630E-08
   43.7999992      -3.30464388E-07
   43.9199982      -6.98442420E-07
   44.0400009      -1.03715843E-06
   44.1599998      -1.33386447E-06
   44.2799988      -1.57790384E-06
   44.4000015      -1.76139110E-06
   44.5200005      -1.87972398E-06
   44.6399994      -1.93187975E-06
   44.7599983      -1.92046491E-06
   44.8800011      -1.85150202E-06
   45.0000000      -1.73396722E-06
   45.1199989      -1.57910017E-06
   45.2400017      -1.39954068E-06
   45.3600006      -1.20835227E-06
   45.4799995      -1.01801231E-06
   45.5999985      -8.39448262E-07
   45.7200012      -6.81203119E-07
   45.8400002      -5.48799505E-07
   45.9599991      -4.44361888E-07
   46.0800018      -3.66533442E-07
   46.2000008      -3.10699988E-07
   46.3199997      -2.69505847E-07
   46.4399986      -2.33621449E-07
   46.5600014      -1.92697740E-07
   46.6800003      -1.36426365E-07
   46.7999992      -5.56123716E-08
   46.9199982       5.68348675E-08
   47.0400009       2.05080298E-07
   47.1599998       3.89784645E-07
   47.2799988       6.07819970E-07
   47.4000015       8.52305561E-07
   47.5200005       1.11296185E-06
   47.6399994       1.37675329E-06
   47.7599983       1.62876813E-06
   47.8800011       1.85326326E-06
   48.0000000       2.03479067E-06
   48.1199989       2.15931914E-06
   48.2400017       2.21526329E-06
   48.3600006       2.19435060E-06
   48.4799995       2.09225777E-06
   48.5999985       1.90898277E-06
   48.7200012       1.64892572E-06
   48.8400002       1.32068567E-06
   48.9599991       9.36588606E-07
   49.0800018       5.11989981E-07
   49.2000008       6.44027693E-08
   49.3199997      -3.87485812E-07
   49.4399986      -8.24841379E-07
   49.5600014      -1.22968572E-06
   49.6800003      -1.58581418E-06
   49.7999992      -1.87957403E-06
   49.9199982      -2.10046164E-06
   50.0400009      -2.24151518E-06
   50.1599998      -2.29948955E-06
   50.2799988      -2.27482064E-06
   50.4000015      -2.17139859E-06
   50.5200005      -1.99617557E-06
   50.6399994      -1.75865262E-06
   50.7599983      -1.47028061E-06
   50.8800011      -1.14382124E-06
   51.0000000      -7.92706032E-07
   51.1199989      -4.30428628E-07
   51.2400017      -6.99984994E-08
   51.3600006       2.76523679E-07
   51.4799995       5.98393967E-07
   51.5999985       8.86449754E-07
   51.7200012       1.13327042E-06
   51.8400002       1.33323897E-06
   51.9599991       1.48251399E-06
   52.0800018       1.57892816E-06
   52.2000008       1.62183221E-06
   52.3199997       1.61190712E-06
   52.4399986       1.55096882E-06
   52.5600014       1.44179035E-06
   52.6800003       1.28796341E-06
   52.7999992       1.09381483E-06
   52.9199982       8.64385925E-07
   53.0400009       6.05470859E-07
   53.1599998       3.23701954E-07
   53.2799988       2.66530638E-08
   53.4000015      -2.77072076E-07
   53.5200005      -5.77808009E-07
   53.6399994      -8.64893650E-07
   53.7599983      -1.12687235E-06
   53.8800011      -1.35185110E-06
   54.0000000      -1.52802704E-06
   54.1199989      -1.64436972E-06
   54.2400017      -1.69142311E-06
   54.3600006      -1.66217080E-06
   54.4799995      -1.55288967E-06
   54.5999985      -1.36390372E-06
   54.7200012      -1.10014651E-06
   54.8400002      -7.71445286E-07
   54.9599991      -3.92458503E-07
   55.0800018       1.77803621E-08
   55.2000008       4.36723724E-07
   55.3199997       8.39550637E-07
   55.4399986       1.20072298E-06
   55.5600014       1.49575521E-06
   55.6800003       1.70306862E-06
   55.7999992       1.80577604E-06
   55.9199982       1.79324138E-06
   56.0400009       1.66226096E-06
   56.1599998       1.41773899E-06
   56.2799988       1.07276492E-06
   56.4000015       6.48049308E-07
   56.5200005       1.70728313E-07
   56.6399994      -3.27394162E-07
   56.7599983      -8.12045982E-07
   56.8800011      -1.24895939E-06
   57.0000000      -1.60642242E-06
   57.1199989      -1.85769591E-06
   57.2400017      -1.98309567E-06
   57.3600006      -1.97155941E-06
   57.4799995      -1.82156293E-06
   57.5999985      -1.54130657E-06
   57.7200012      -1.14815430E-06
   57.8400002      -6.67373229E-07
   57.9599991      -1.30280071E-07
   58.0800018       4.28045382E-07
   58.2000008       9.71291456E-07
   58.3199997       1.46447826E-06
   58.4399986       1.87635192E-06
   58.5600014       2.18141963E-06
   58.6800003       2.36148094E-06
   58.7999992       2.40655595E-06
   58.9199982       2.31516174E-06
   59.0400009       2.09395762E-06
   59.1599998       1.75682192E-06
   59.2799988       1.32347566E-06
   59.4000015       8.17792397E-07
   59.5200005       2.65962001E-07
   59.6399994      -3.05333600E-07
   59.7599983      -8.70580834E-07
   59.8800011      -1.40681209E-06
   60.0000000      -1.89461218E-06
   60.1199989      -2.31871331E-06
   60.2400017      -2.66817915E-06
   60.3600006      -2.93621952E-06
   60.4799995      -3.11970507E-06
   60.5999985      -3.21849029E-06
   60.7200012      -3.23463973E-06
   60.8400002      -3.17167633E-06
   60.9599991      -3.03393585E-06
   61.0800018      -2.82610540E-06
   61.2000008      -2.55298028E-06
   61.3199997      -2.21945561E-06
   61.4399986      -1.83072189E-06
   61.5600014      -1.39261681E-06
   61.6800003      -9.12061466E-07
   61.7999992      -3.97496365E-07
   61.9199982       1.40767710E-07
   62.0400009       6.90359116E-07
   62.1599998       1.23687539E-06
   62.2799988       1.76416688E-06
   62.4000015       2.25488020E-06
   62.5200005       2.69123757E-06
   62.6399994       3.05599860E-06
   62.7599983       3.33353023E-06
   62.8800011       3.51089147E-06
   63.0000000       3.57883437E-06
   63.1199989       3.53262317E-06
   63.2400017       3.37258712E-06
   63.3600006       3.10434643E-06
   63.4799995       2.73867113E-06
   63.5999985       2.29097259E-06
   63.7200012       1.78046207E-06
   63.8400002       1.22903396E-06
   63.9599991       6.59964712E-07
   64.0800018       9.65342579E-08
   64.1999969      -4.39318740E-07
   64.3199997      -9.28198176E-07
   64.4400024      -1.35421510E-06
   64.5599976      -1.70564681E-06
   64.6800003      -1.97525083E-06
   64.8000031      -2.16023204E-06
   64.9199982      -2.26189013E-06
   65.0400009      -2.28500403E-06
   65.1600037      -2.23703660E-06
   65.2799988      -2.12724467E-06
   65.4000015      -1.96579367E-06
   65.5199966      -1.76295316E-06
   65.6399994      -1.52844257E-06
   65.7600021      -1.27097053E-06
   65.8799973      -9.97983534E-07
   66.0000000      -7.15613908E-07
   66.1200027      -4.28799041E-07
   66.2399979      -1.41525206E-07
   66.3600006       1.42859534E-07
   66.4800034       4.21317708E-07
   66.5999985       6.90831030E-07
   66.7200012       9.48182674E-07
   66.8399963       1.18983780E-06
   66.9599991       1.41193118E-06
   67.0800018       1.61035189E-06
   67.1999969       1.78090727E-06
   67.3199997       1.91953859E-06
   67.4400024       2.02255251E-06
   67.5599976       2.08683832E-06
   67.6800003       2.11004362E-06
   67.8000031       2.09069140E-06
   67.9199982       2.02822866E-06
   68.0400009       1.92301195E-06
   68.1600037       1.77624668E-06
   68.2799988       1.58989690E-06
   68.4000015       1.36660060E-06
   68.5199966       1.10960968E-06
   68.6399994       8.22779498E-07
   68.7600021       5.10617213E-07
   68.8799973       1.78386912E-07
   69.0000000      -1.67747686E-07
   69.1200027      -5.20574986E-07
   69.2399979      -8.71725376E-07
   69.3600006      -1.21164896E-06
   69.4800034      -1.52972609E-06
   69.5999985      -1.81454686E-06
   69.7200012      -2.05437391E-06
   69.8399963      -2.23778216E-06
   69.9599991      -2.35443758E-06
   70.0800018      -2.39594874E-06
   70.1999969      -2.35671882E-06
   70.3199997      -2.23469101E-06
   70.4400024      -2.03190484E-06
   70.5599976      -1.75477749E-06
   70.6800003      -1.41405837E-06
   70.8000031      -1.02442812E-06
   70.9199982      -6.03760611E-07
   71.0400009      -1.72093692E-07
   71.1600037       2.49609741E-07
   71.2799988       6.40807627E-07
   71.4000015       9.82719143E-07
   71.5199966       1.25954830E-06
   71.6399994       1.45949173E-06
   71.7600021       1.57545662E-06
   71.8799973       1.60543789E-06
   72.0000000       1.55254088E-06
   72.1200027       1.42465615E-06
   72.2399979       1.23382711E-06
   72.3600006       9.95363848E-07
   72.4800034       7.26774203E-07
   72.5999985       4.46588530E-07
   72.7200012       1.73158924E-07