  -30.0000000       0.00000000    
  -29.8799992       0.00000000    
  -29.7600002       0.00000000    
  -29.6399994       0.00000000    
  -29.5200005       0.00000000    
  -29.3999996       0.00000000    
  -29.2800007       0.00000000    
  -29.1599998       0.00000000    
  -29.0400009      -1.60429212E-30
  -28.9200001      -1.18048289E-29
  -28.7999992      -2.96887939E-29
  -28.6800003      -1.71232123E-31
  -28.5599995       4.11660965E-29
  -28.4400005      -1.15235515E-27
  -28.3199997      -8.56259363E-27
  -28.2000008      -3.06597293E-26
  -28.0799999      -6.18706320E-26
  -27.9599991      -2.89773047E-26
  -27.8400002       2.81585133E-25
  -27.7199993       1.18965461E-24
  -27.6000004       2.71979755E-24
  -27.4799995       3.63332530E-24
  -27.3600006       3.05897974E-25
  -27.2399998      -1.28716407E-23
  -27.1200008      -3.87854887E-23
  -27.0000000      -6.69674751E-23
  -26.8799992      -6.12873673E-23
  -26.7600002       3.95401067E-23
  -26.6399994       2.86475254E-22
  -26.5200005       6.36722176E-22
  -26.3999996       8.49144419E-22
  -26.2800007       4.51198852E-22
  -26.1599998      -1.07944202E-21
  -26.0400009      -3.81791593E-21
  -25.9200001      -6.68627941E-21
  -25.7999992      -6.99848274E-21
  -25.6800003      -1.02498139E-21
  -25.5599995       1.37470277E-20
  -25.4400005       3.48251859E-20
  -25.3199997       5.11561578E-20
  -25.2000008       4.32151302E-20
  -25.0799999      -9.54487505E-21
  -24.9599991      -1.12761468E-19
  -24.8400002      -2.37582092E-19
  -24.7199993      -3.09674010E-19
  -24.6000004      -2.23219626E-19
  -24.4799995       1.08772751E-19
  -24.3600006       6.74345294E-19
  -24.2399998       1.28634030E-18
  -24.1200008       1.56736468E-18
  -24.0000000       1.05383782E-18
  -23.8799992      -5.62396790E-19
  -23.7600002      -3.11600136E-18
  -23.6399994      -5.72746639E-18
  -23.5200005      -6.84655863E-18
  -23.3999996      -4.74029581E-18
  -23.2800007       1.59013199E-18
  -23.1599998       1.13504673E-17
  -23.0400009       2.12932585E-17
  -22.9200001       2.60704300E-17
  -22.7999992       1.99657230E-17
  -22.6800003      -2.12344592E-19
  -22.5599995      -3.20545755E-17
  -22.4400005      -6.58543698E-17
  -22.3199997      -8.58589388E-17
  -22.2000008      -7.52066790E-17
  -22.0799999      -2.37081561E-17
  -21.9599991       6.41773902E-17
  -21.8400002       1.65002164E-16
  -21.7199993       2.39182887E-16
  -21.6000004       2.42479248E-16
  -21.4799995       1.43965240E-16
  -21.3600006      -5.53925170E-17
  -21.2399998      -3.11649653E-16
  -21.1200008      -5.41577408E-16
  -21.0000000      -6.44092641E-16
  -20.8799992      -5.35574539E-16
  -20.7600002      -1.88314721E-16
  -20.6399994       3.42655876E-16
  -20.5200005       9.17895618E-16
  -20.3999996       1.34356715E-15
  -20.2800007       1.42868740E-15
  -20.1599998       1.05392191E-15
  -20.0400009       2.29123974E-16
  -19.9200001      -8.82871599E-16
  -19.7999992      -1.99012763E-15
  -19.6800003      -2.74249638E-15
  -19.5599995      -2.83285214E-15
  -19.4400005      -2.09999415E-15
  -19.3199997      -6.00936207E-16
  -19.2000008       1.37326021E-15
  -19.0799999       3.34892221E-15
  -18.9599991       4.77998522E-15
  -18.8400002       5.19065813E-15
  -18.7199993       4.31307356E-15
  -18.6000004       2.18166041E-15
  -18.4799995      -8.44079343E-16
  -18.3600006      -4.13857418E-15
  -18.2399998      -6.93982479E-15
  -18.1200008      -8.52011807E-15
  -18.0000000      -8.35791634E-15
  -17.8799992      -6.27133750E-15
  -17.7600002      -2.48384916E-15
  -17.6399994       2.39108168E-15
  -17.5200005       7.44299709E-15
  -17.3999996       1.16189898E-14
  -17.2800007       1.39163702E-14
  -17.1599998       1.35865931E-14
  -17.0400009       1.03206873E-14
  -16.9200001       4.38227954E-15
  -16.7999992      -3.34910411E-15
  -16.6800003      -1.14588337E-14
  -16.5599995      -1.82198227E-14
  -16.4400005      -2.19418057E-14
  -16.3199997      -2.13878597E-14
  -16.2000008      -1.61578955E-14
  -16.0799999      -6.92031593E-15
  -15.9600000       4.60814807E-15
  -15.8400002       1.59750007E-14
  -15.7200003       2.45520648E-14
  -15.6000004       2.82129615E-14
  -15.4799995       2.59439687E-14
  -15.3599997       1.82022197E-14
  -15.2399998       6.89017426E-15
  -15.1199999      -5.08762971E-15
  -15.0000000      -1.46053197E-14
  -14.8800001      -1.92501332E-14
  -14.7600002      -1.81569627E-14
  -14.6400003      -1.24709466E-14
  -14.5200005      -5.21333067E-15
  -14.3999996      -4.49561149E-16
  -14.2799997      -1.85695838E-15
  -14.1599998      -1.10330395E-14
  -14.0400000      -2.61057740E-14
  -13.9200001      -4.13013163E-14
  -13.8000002      -4.79903423E-14
  -13.6800003      -3.73241849E-14
  -13.5600004      -3.94916618E-15
  -13.4399996       5.03533067E-14
  -13.3199997       1.14629917E-13
  -13.1999998       1.69696383E-13
  -13.0799999       1.92634442E-13
  -12.9600000       1.64133166E-13
  -12.8400002       7.66003539E-14
  -12.7200003      -5.98935506E-14
  -12.6000004      -2.16638651E-13
  -12.4799995      -3.51756791E-13
  -12.3599997      -4.21396967E-13
  -12.2399998      -3.93586151E-13
  -12.1199999      -2.60133440E-13
  -12.0000000      -4.20445810E-14
  -11.8800001       2.14216096E-13
  -11.7600002       4.49089198E-13
  -11.6400003       6.07031135E-13
  -11.5200005       6.52368838E-13
  -11.3999996       5.78029920E-13
  -11.2799997       4.03886153E-13
  -11.1599998       1.65656754E-13
  -11.0400000      -1.00519040E-13
  -10.9200001      -3.70490775E-13
  -10.8000002      -6.35057978E-13
  -10.6800003      -8.91132816E-13
  -10.5600004      -1.12456930E-12
  -10.4399996      -1.29325110E-12
  -10.3199997      -1.32099160E-12
  -10.1999998      -1.11014334E-12
  -10.0799999      -5.73907133E-13
  -9.96000004       3.19547394E-13
  -9.84000015       1.50639570E-12
  -9.72000027       2.80761113E-12
  -9.60000038       3.94402436E-12
  -9.47999954       4.58915544E-12
  -9.35999966       4.44984848E-12
  -9.23999977       3.35337509E-12
  -9.11999989       1.31462929E-12
  -9.00000000      -1.43933921E-12
  -8.88000011      -4.49835828E-12
  -8.76000023      -7.34640213E-12
  -8.64000034      -9.46644065E-12
  -8.52000046      -1.04434282E-11
  -8.39999962      -1.00369123E-11
  -8.27999973      -8.20547796E-12
  -8.15999985      -5.08226534E-12
  -8.03999996      -9.18163657E-13
  -7.92000008       3.97927784E-12
  -7.80000019       9.28245154E-12
  -7.67999983       1.46380946E-11
  -7.55999994       1.96217209E-11
  -7.44000006       2.36764826E-11
  -7.32000017       2.60766964E-11
  -7.19999981       2.59583015E-11
  -7.07999992       2.24428896E-11
  -6.96000004       1.48511221E-11
  -6.84000015       2.96375381E-12
  -6.71999979      -1.27423879E-11
  -6.59999990      -3.09670345E-11
  -6.48000002      -4.96338318E-11
  -6.36000013      -6.61334668E-11
  -6.23999977      -7.77234110E-11
  -6.11999989      -8.19895055E-11
  -6.00000000      -7.72456543E-11
  -5.88000011      -6.27593047E-11
  -5.76000023      -3.87431094E-11
  -5.63999987      -6.12967576E-12
  -5.51999998       3.37800586E-11
  -5.40000010       7.96640670E-11
  -5.28000021       1.30401745E-10
  -5.15999985       1.85110829E-10
  -5.03999996       2.43024462E-10
  -4.92000008       3.03311903E-10
  -4.80000019       3.64979935E-10
  -4.67999983       4.26964519E-10
  -4.55999994       4.88440066E-10
  -4.44000006       5.49267520E-10
  -4.32000017       6.10417550E-10
  -4.19999981       6.74177159E-10
  -4.07999992       7.43996253E-10
  -3.96000004       8.23940471E-10
  -3.83999991       9.17851517E-10
  -3.72000003       1.02842679E-09
  -3.59999990       1.15647392E-09
  -3.48000002       1.30055955E-09
  -3.35999990       1.45716261E-09
  -3.24000001       1.62130076E-09
  -3.11999989       1.78747173E-09
  -3.00000000       1.95067740E-09
  -2.88000011       2.10729079E-09
  -2.75999999       2.25559771E-09
  -2.64000010       2.39594500E-09
  -2.51999998       2.53054355E-09
  -2.40000010       2.66304756E-09
  -2.27999997       2.79807244E-09
  -2.16000009       2.94077895E-09
  -2.03999996       3.09659565E-09
  -1.91999996       3.27105365E-09
  -1.79999995       3.46965479E-09
  -1.67999995       3.69764264E-09
  -1.55999994       3.95958599E-09
  -1.44000006       4.25875379E-09
  -1.32000005       4.59637262E-09
  -1.20000005       4.97097385E-09
  -1.08000004       5.37809308E-09
 -0.959999979       5.81056447E-09
 -0.839999974       6.25952490E-09
 -0.720000029       6.71604816E-09
 -0.600000024       7.17308879E-09
 -0.479999989       7.62727126E-09
 -0.360000014       8.08001044E-09
 -0.239999995       8.53759641E-09
 -0.119999997       9.01014019E-09
  -1.11022302E-15   9.50968193E-09
  0.119999997       1.00479998E-08
  0.239999995       1.06348370E-08
  0.360000014       1.12771028E-08
  0.479999989       1.19793082E-08
  0.600000024       1.27449793E-08
  0.720000029       1.35784566E-08
  0.839999974       1.44862531E-08
  0.959999979       1.54773048E-08
   1.08000004       1.65618435E-08
   1.20000005       1.77491888E-08
   1.32000005       1.90452702E-08
   1.44000006       2.04507877E-08
   1.55999994       2.19608740E-08
   1.67999995       2.35664714E-08
   1.79999995       2.52570747E-08
   1.91999996       2.70238854E-08
   2.03999996       2.88622868E-08
   2.16000009       3.07727746E-08
   2.27999997       3.27601697E-08
   2.40000010       3.48315830E-08
   2.51999998       3.69941660E-08
   2.64000010       3.92537345E-08
   2.75999999       4.16150172E-08
   2.88000011       4.40834000E-08
   3.00000000       4.66674663E-08
   3.11999989       4.93809580E-08
   3.24000001       5.22431520E-08
   3.35999990       5.52770132E-08
   3.48000002       5.85055631E-08
   3.59999990       6.19476239E-08
   3.72000003       6.56144294E-08
   3.83999991       6.95084594E-08
   3.96000004       7.36249106E-08
   4.07999992       7.79551996E-08
   4.19999981       8.24913258E-08
   4.32000017       8.72292745E-08
   4.44000006       9.21703176E-08
   4.55999994       9.73200258E-08
   4.67999983       1.02685377E-07
   4.80000019       1.08271770E-07
   4.92000008       1.14081296E-07
   5.03999996       1.20113242E-07
   5.15999985       1.26366999E-07
   5.28000021       1.32846196E-07
   5.40000010       1.39562474E-07
   5.51999998       1.46537246E-07
   5.63999987       1.53800428E-07
   5.76000023       1.61386495E-07
   5.88000011       1.69328700E-07
   6.00000000       1.77653661E-07
   6.11999989       1.86377747E-07
   6.23999977       1.95506630E-07
   6.36000013       2.05037693E-07
   6.48000002       2.14964288E-07
   6.59999990       2.25280289E-07
   6.71999979       2.35983109E-07
   6.84000015       2.47074155E-07
   6.96000004       2.58556838E-07
   7.07999992       2.70433191E-07
   7.19999981       2.82700682E-07
   7.32000017       2.95350532E-07
   7.44000006       3.08368840E-07
   7.55999994       3.21740060E-07
   7.67999983       3.35452000E-07
   7.80000019       3.49500567E-07
   7.92000008       3.63892326E-07
   8.03999996       3.78644387E-07
   8.15999985       3.93780681E-07
   8.27999973       4.09326589E-07
   8.39999962       4.25302858E-07
   8.52000046       4.41720914E-07
   8.64000034       4.58581297E-07
   8.76000023       4.75874486E-07
   8.88000011       4.93584537E-07
   9.00000000       5.11693088E-07
   9.11999989       5.30182660E-07
   9.23999977       5.49038077E-07
   9.35999966       5.68244900E-07
   9.47999954       5.87786531E-07
   9.60000038       6.07640175E-07
   9.72000027       6.27774000E-07
   9.84000015       6.48146624E-07
   9.96000004       6.68708537E-07
   10.0799999       6.89406022E-07
   10.1999998       7.10184679E-07
   10.3199997       7.30993179E-07
   10.4399996       7.51784569E-07
   10.5600004       7.72515023E-07
   10.6800003       7.93142078E-07
   10.8000002       8.13620829E-07
   10.9200001       8.33902448E-07
   11.0400000       8.53932988E-07
   11.1599998       8.73654471E-07
   11.2799997       8.93006586E-07
   11.3999996       9.11928851E-07
   11.5200005       9.30361637E-07
   11.6400003       9.48245088E-07
   11.7600002       9.65517529E-07
   11.8800001       9.82111942E-07
   12.0000000       9.97952384E-07
   12.1199999       1.01295143E-06
   12.2399998       1.02700744E-06
   12.3599997       1.04000435E-06
   12.4799995       1.05181005E-06
   12.6000004       1.06227787E-06
   12.7200003       1.07124879E-06
   12.8400002       1.07855487E-06
   12.9600000       1.08402423E-06
   13.0799999       1.08748634E-06
   13.1999998       1.08877634E-06
   13.3199997       1.08773713E-06
   13.4399996       1.08421727E-06
   13.5600004       1.07806648E-06
   13.6800003       1.06912762E-06
   13.8000002       1.05722700E-06
   13.9200001       1.04216872E-06
   14.0400000       1.02373099E-06
   14.1599998       1.00166892E-06
   14.2799997       9.75720354E-07
   14.3999996       9.45614545E-07
   14.5200005       9.11079269E-07
   14.6400003       8.71845828E-07
   14.7600002       8.27649899E-07
   14.8800001       7.78228014E-07
   15.0000000       7.23311587E-07
   15.1199999       6.62620664E-07
   15.2399998       5.95858694E-07
   15.3599997       5.22709968E-07
   15.4799995       4.42839905E-07
   15.6000004       3.55897839E-07
   15.7200003       2.61519631E-07
   15.8400002       1.59330526E-07
   15.9600000       4.89453171E-08
   16.0799999      -7.00320584E-08
   16.2000008      -1.98010071E-07
   16.3199997      -3.35412182E-07
   16.4400005      -4.82675887E-07
   16.5599995      -6.40250676E-07
   16.6800003      -8.08593484E-07
   16.7999992      -9.88161105E-07
   16.9200001      -1.17940476E-06
   17.0400009      -1.38276584E-06
   17.1599998      -1.59867534E-06
   17.2800007      -1.82756014E-06
   17.3999996      -2.06984987E-06
   17.5200005      -2.32599132E-06
   17.6399994      -2.59646026E-06
   17.7600002      -2.88177148E-06
   17.8799992      -3.18248112E-06
   18.0000000      -3.49919037E-06
   18.1200008      -3.83253064E-06
   18.2399998      -4.18315904E-06
   18.3600006      -4.55173813E-06
   18.4799995      -4.93892458E-06
   18.6000004      -5.34535775E-06
   18.7199993      -5.77165201E-06
   18.8400002      -6.21840127E-06
   18.9599991      -6.68618395E-06
   19.0799999      -7.17557396E-06
   19.2000008      -7.68715927E-06
   19.3199997      -8.22155471E-06
   19.4400005      -8.77940693E-06
   19.5599995      -9.36140532E-06
   19.6800003      -9.96827748E-06
   19.7999992      -1.06007838E-05
   19.9200001      -1.12597054E-05
   20.0400009      -1.19458346E-05
   20.1599998      -1.26599634E-05
   20.2800007      -1.34028714E-05
   20.3999996      -1.41753289E-05
   20.5200005      -1.49780799E-05
   20.6399994      -1.58118528E-05
   20.7600002      -1.66773589E-05
   20.8799992      -1.75752975E-05
   21.0000000      -1.85063618E-05
   21.1200008      -1.94712557E-05
   21.2399998      -2.04706921E-05
   21.3600006      -2.15054206E-05
   21.4799995      -2.25762033E-05
   21.6000004      -2.36838350E-05
   21.7199993      -2.48291162E-05
   21.8400002      -2.60128509E-05
   21.9599991      -2.72358266E-05
   22.0799999      -2.84988037E-05
   22.2000008      -2.98025134E-05
   22.3199997      -3.11476724E-05
   22.4400005      -3.25349793E-05
   22.5599995      -3.39651378E-05
   22.6800003      -3.54388503E-05
   22.7999992      -3.69568406E-05
   22.9200001      -3.85198400E-05
   23.0400009      -4.01285652E-05
   23.1599998      -4.17837400E-05
   23.2800007      -4.34860485E-05
   23.3999996      -4.52361783E-05
   23.5200005      -4.70347877E-05
   23.6399994      -4.88825281E-05
   23.7600002      -5.07800287E-05
   23.8799992      -5.27279008E-05
   24.0000000      -5.47267300E-05
   24.1200008      -5.67770621E-05
   24.2399998      -5.88794064E-05
   24.3600006      -6.10342104E-05
   24.4799995      -6.32418887E-05
   24.6000004      -6.55028198E-05
   24.7199993      -6.78173819E-05
   24.8400002      -7.01859026E-05
   24.9599991      -7.26087601E-05
   25.0799999      -7.50862673E-05
   25.2000008      -7.76187444E-05
   25.3199997      -8.02064387E-05
   25.4400005      -8.28495613E-05
   25.5599995      -8.55482649E-05
   25.6800003      -8.83026296E-05
   25.7999992      -9.11126699E-05
   25.9200001      -9.39783786E-05
   26.0400009      -9.68996683E-05
   26.1599998      -9.98764590E-05
   26.2800007      -1.02908576E-04
   26.3999996      -1.05995838E-04
   26.5200005      -1.09137975E-04
   26.6399994      -1.12334637E-04
   26.7600002      -1.15585412E-04
   26.8799992      -1.18889795E-04
   27.0000000      -1.22247206E-04
   27.1200008      -1.25657010E-04
   27.2399998      -1.29118562E-04
   27.3600006      -1.32631088E-04
   27.4799995      -1.36193878E-04
   27.6000004      -1.39806085E-04
   27.7199993      -1.43466779E-04
   27.8400002      -1.47175015E-04
   27.9599991      -1.50929656E-04
   28.0799999      -1.54729467E-04
   28.2000008      -1.58573064E-04
   28.3199997      -1.62459008E-04
   28.4400005      -1.66385726E-04
   28.5599995      -1.70351530E-04
   28.6800003      -1.74354718E-04
   28.7999992      -1.78393515E-04
   28.9200001      -1.82466043E-04
   29.0400009      -1.86570367E-04
   29.1599998      -1.90704493E-04
   29.2800007      -1.94866268E-04
   29.3999996      -1.99053480E-04
   29.5200005      -2.03263728E-04
   29.6399994      -2.07494581E-04
   29.7600002      -2.11743434E-04
   29.8799992      -2.16007582E-04
   30.0000000      -2.20284201E-04
   30.1200008      -2.24570351E-04
   30.2399998      -2.28862991E-04
   30.3600006      -2.33159051E-04
   30.4799995      -2.37455301E-04
   30.6000004      -2.41748479E-04
   30.7199993      -2.46035197E-04
   30.8400002      -2.50311947E-04
   30.9599991      -2.54575047E-04
   31.0799999      -2.58820801E-04
   31.2000008      -2.63045280E-04
   31.3199997      -2.67244526E-04
   31.4400005      -2.71414436E-04
   31.5599995      -2.75550905E-04
   31.6800003      -2.79649714E-04
   31.7999992      -2.83706497E-04
   31.9200001      -2.87716801E-04
   32.0400009      -2.91676144E-04
   32.1599998      -2.95579899E-04
   32.2799988      -2.99423293E-04
   32.4000015      -3.03201523E-04
   32.5200005      -3.06909671E-04
   32.6399994      -3.10542673E-04
   32.7599983      -3.14095494E-04
   32.8800011      -3.17563012E-04
   33.0000000      -3.20940017E-04
   33.1199989      -3.24221270E-04
   33.2400017      -3.27401533E-04
   33.3600006      -3.30475421E-04
   33.4799995      -3.33437580E-04
   33.5999985      -3.36282537E-04
   33.7200012      -3.39004793E-04
   33.8400002      -3.41598847E-04
   33.9599991      -3.44059110E-04
   34.0800018      -3.46380024E-04
   34.2000008      -3.48556059E-04
   34.3199997      -3.50581569E-04
   34.4399986      -3.52451025E-04
   34.5600014      -3.54158779E-04
   34.6800003      -3.55699187E-04
   34.7999992      -3.57066689E-04
   34.9199982      -3.58255755E-04
   35.0400009      -3.59260914E-04
   35.1599998      -3.60076752E-04
   35.2799988      -3.60697915E-04
   35.4000015      -3.61119106E-04
   35.5200005      -3.61335115E-04
   35.6399994      -3.61340703E-04
   35.7599983      -3.61130806E-04
   35.8800011      -3.60700302E-04
   36.0000000      -3.60044214E-04
   36.1199989      -3.59157682E-04
   36.2400017      -3.58035875E-04
   36.3600006      -3.56674223E-04
   36.4799995      -3.55068158E-04
   36.5999985      -3.53213400E-04
   36.7200012      -3.51105758E-04
   36.8400002      -3.48741218E-04
   36.9599991      -3.46116023E-04
   37.0800018      -3.43226537E-04
   37.2000008      -3.40069324E-04
   37.3199997      -3.36641184E-04
   37.4399986      -3.32939089E-04
   37.5600014      -3.28960217E-04
   37.6800003      -3.24701832E-04
   37.7999992      -3.20161489E-04
   37.9199982      -3.15336976E-04
   38.0400009      -3.10226227E-04
   38.1599998      -3.04827612E-04
   38.2799988      -2.99139705E-04
   38.4000015      -2.93161400E-04
   38.5200005      -2.86891911E-04
   38.6399994      -2.80330743E-04
   38.7599983      -2.73477664E-04
   38.8800011      -2.66332703E-04
   39.0000000      -2.58896122E-04
   39.1199989      -2.51168502E-04
   39.2400017      -2.43150804E-04
   39.3600006      -2.34844119E-04
   39.4799995      -2.26250064E-04
   39.5999985      -2.17370471E-04
   39.7200012      -2.08207581E-04
   39.8400002      -1.98764072E-04
   39.9599991      -1.89042883E-04
   40.0800018      -1.79047332E-04
   40.2000008      -1.68781131E-04
   40.3199997      -1.58248280E-04
   40.4399986      -1.47453145E-04
   40.5600014      -1.36400384E-04
   40.6800003      -1.25094972E-04
   40.7999992      -1.13542228E-04
   40.9199982      -1.01747763E-04
   41.0400009      -8.97175632E-05
   41.1599998      -7.74579676E-05
   41.2799988      -6.49757130E-05
   41.4000015      -5.22779228E-05
   41.5200005      -3.93721166E-05
   41.6399994      -2.62661906E-05
   41.7599983      -1.29683967E-05
   41.8800011       5.12702229E-07
   42.0000000       1.41682522E-05
   42.1199989       2.79891265E-05
   42.2400017       4.19659336E-05
   42.3600006       5.60890039E-05
   42.4799995       7.03483674E-05
   42.5999985       8.47337433E-05
   42.7200012       9.92345740E-05
   42.8400002       1.13840048E-04
   42.9599991       1.28539119E-04
   43.0800018       1.43320489E-04
   43.2000008       1.58172654E-04
   43.3199997       1.73083899E-04
   43.4399986       1.88042250E-04
   43.5600014       2.03035466E-04
   43.6800003       2.18051122E-04
   43.7999992       2.33076527E-04
   43.9199982       2.48098921E-04
   44.0400009       2.63105350E-04
   44.1599998       2.78082793E-04
   44.2799988       2.93018238E-04
   44.4000015       3.07898619E-04
   44.5200005       3.22710723E-04
   44.6399994       3.37441248E-04
   44.7599983       3.52076895E-04
   44.8800011       3.66604305E-04
   45.0000000       3.81010090E-04
   45.1199989       3.95280891E-04
   45.2400017       4.09403234E-04
   45.3600006       4.23363817E-04
   45.4799995       4.37149487E-04
   45.5999985       4.50747000E-04
   45.7200012       4.64143377E-04
   45.8400002       4.77325753E-04
   45.9599991       4.90281207E-04
   46.0800018       5.02997311E-04
   46.2000008       5.15461550E-04
   46.3199997       5.27661701E-04
   46.4399986       5.39586006E-04
   46.5600014       5.51222707E-04
   46.6800003       5.62560454E-04
   46.7999992       5.73588011E-04
   46.9199982       5.84294379E-04
   47.0400009       5.94669080E-04
   47.1599998       6.04701694E-04
   47.2799988       6.14382210E-04
   47.4000015       6.23701140E-04
   47.5200005       6.32649113E-04
   47.6399994       6.41217397E-04
   47.7599983       6.49397669E-04
   47.8800011       6.57182070E-04
   48.0000000       6.64563151E-04
   48.1199989       6.71534042E-04
   48.2400017       6.78088167E-04
   48.3600006       6.84219471E-04
   48.4799995       6.89922250E-04
   48.5999985       6.95191382E-04
   48.7200012       7.00022385E-04
   48.8400002       7.04410952E-04
   48.9599991       7.08353531E-04
   49.0800018       7.11847038E-04
   49.2000008       7.14889204E-04
   49.3199997       7.17477873E-04
   49.4399986       7.19611766E-04
   49.5600014       7.21290184E-04
   49.6800003       7.22512777E-04
   49.7999992       7.23279896E-04
   49.9199982       7.23592355E-04
   50.0400009       7.23451783E-04
   50.1599998       7.22860277E-04
   50.2799988       7.21820514E-04
   50.4000015       7.20335636E-04
   50.5200005       7.18409370E-04
   50.6399994       7.16045906E-04
   50.7599983       7.13249785E-04
   50.8800011       7.10026245E-04
   51.0000000       7.06381048E-04
   51.1199989       7.02320482E-04
   51.2400017       6.97851414E-04
   51.3600006       6.92981295E-04
   51.4799995       6.87717868E-04
   51.5999985       6.82069513E-04
   51.7200012       6.76045136E-04
   51.8400002       6.69653818E-04
   51.9599991       6.62905222E-04
   52.0800018       6.55809476E-04
   52.2000008       6.48377172E-04
   52.3199997       6.40619255E-04
   52.4399986       6.32547075E-04
   52.5600014       6.24172215E-04
   52.6800003       6.15506724E-04
   52.7999992       6.06562593E-04
   52.9199982       5.97352278E-04
   53.0400009       5.87888237E-04
   53.1599998       5.78183390E-04
   53.2799988       5.68251009E-04
   53.4000015       5.58104599E-04
   53.5200005       5.47757838E-04
   53.6399994       5.37224754E-04
   53.7599983       5.26519376E-04
   53.8800011       5.15655556E-04
   54.0000000       5.04647498E-04
   54.1199989       4.93509113E-04
   54.2400017       4.82254487E-04
   54.3600006       4.70897881E-04
   54.4799995       4.59453411E-04
   54.5999985       4.47935279E-04
   54.7200012       4.36357717E-04
   54.8400002       4.24734782E-04
   54.9599991       4.13080415E-04
   55.0800018       4.01408353E-04
   55.2000008       3.89732246E-04
   55.3199997       3.78065597E-04
   55.4399986       3.66421766E-04
   55.5600014       3.54813994E-04
   55.6800003       3.43255320E-04
   55.7999992       3.31758551E-04
   55.9199982       3.20336141E-04
   56.0400009       3.09000141E-04
   56.1599998       2.97762395E-04
   56.2799988       2.86634284E-04
   56.4000015       2.75626982E-04
   56.5200005       2.64751347E-04
   56.6399994       2.54017941E-04
   56.7599983       2.43436967E-04
   56.8800011       2.33018261E-04
   57.0000000       2.22771181E-04
   57.1199989       2.12704661E-04
   57.2400017       2.02827112E-04
   57.3600006       1.93146494E-04
   57.4799995       1.83670418E-04
   57.5999985       1.74406116E-04
   57.7200012       1.65360456E-04
   57.8400002       1.56539871E-04
   57.9599991       1.47950355E-04
   58.0800018       1.39597352E-04
   58.2000008       1.31485795E-04
   58.3199997       1.23619990E-04
   58.4399986       1.16003779E-04
   58.5600014       1.08640510E-04
   58.6800003       1.01533165E-04
   58.7999992       9.46843575E-05
   58.9199982       8.80963053E-05
   59.0400009       8.17708060E-05
   59.1599998       7.57091984E-05
   59.2799988       6.99122902E-05
   59.4000015       6.43803942E-05
   59.5200005       5.91133576E-05
   59.6399994       5.41105765E-05
   59.7599983       4.93710941E-05
   59.8800011       4.48936262E-05
   60.0000000       4.06765284E-05
   60.1199989       3.67177890E-05
   60.2400017       3.30149815E-05
   60.3600006       2.95652444E-05
   60.4799995       2.63652746E-05
   60.5999985       2.34113813E-05
   60.7200012       2.06995592E-05
   60.8400002       1.82255462E-05
   60.9599991       1.59848769E-05
   61.0800018       1.39728900E-05
   61.2000008       1.21847052E-05
   61.3199997       1.06151865E-05
   61.4399986       9.25890254E-06
   61.5600014       8.11011523E-06
   61.6800003       7.16280965E-06
   61.7999992       6.41074030E-06
   61.9199982       5.84748796E-06
   62.0400009       5.46650563E-06
   62.1599998       5.26114400E-06
   62.2799988       5.22466371E-06
   62.4000015       5.35022582E-06
   62.5200005       5.63089088E-06
   62.6399994       6.05962532E-06
   62.7599983       6.62932007E-06
   62.8800011       7.33281649E-06
   63.0000000       8.16292504E-06
   63.1199989       9.11245115E-06
   63.2400017       1.01741998E-05
   63.3600006       1.13409787E-05
   63.4799995       1.26056111E-05
   63.5999985       1.39609347E-05
   63.7200012       1.53998335E-05
   63.8400002       1.69152536E-05
   63.9599991       1.85002209E-05
   64.0800018       2.01478560E-05
   64.1999969       2.18513760E-05
   64.3199997       2.36041014E-05
   64.4400024       2.53994622E-05
   64.5599976       2.72310135E-05
   64.6800003       2.90924563E-05
   64.8000031       3.09776478E-05
   64.9199982       3.28806054E-05
   65.0400009       3.47954992E-05
   65.1600037       3.67166504E-05
   65.2799988       3.86385109E-05
   65.4000015       4.05556711E-05
   65.5199966       4.24628997E-05
   65.6399994       4.43551471E-05
   65.7600021       4.62276003E-05
   65.8799973       4.80757080E-05
   66.0000000       4.98951522E-05
   66.1200027       5.16818545E-05
   66.2399979       5.34319370E-05
   66.3600006       5.51416852E-05
   66.4800034       5.68075629E-05
   66.5999985       5.84262125E-05
   66.7200012       5.99944760E-05
   66.8399963       6.15094177E-05
   66.9599991       6.29683491E-05
   67.0800018       6.43688181E-05
   67.1999969       6.57085475E-05
   67.3199997       6.69854708E-05
   67.4400024       6.81976744E-05
   67.5599976       6.93433831E-05
   67.6800003       7.04210543E-05
   67.8000031       7.14293419E-05
   67.9199982       7.23671837E-05
   68.0400009       7.32337503E-05
   68.1600037       7.40284231E-05
   68.2799988       7.47507875E-05
   68.4000015       7.54005305E-05
   68.5199966       7.59774266E-05
   68.6399994       7.64813522E-05
   68.7600021       7.69122926E-05
   68.8799973       7.72704152E-05
   69.0000000       7.75560620E-05
   69.1200027       7.77697933E-05
   69.2399979       7.79123729E-05
   69.3600006       7.79847396E-05
   69.4800034       7.79879338E-05
   69.5999985       7.79230613E-05
   69.7200012       7.77912865E-05
   69.8399963       7.75938024E-05
   69.9599991       7.73318898E-05
   70.0800018       7.70069237E-05
   70.1999969       7.66204321E-05
   70.3199997       7.61740957E-05
   70.4400024       7.56696973E-05
   70.5599976       7.51091211E-05
   70.6800003       7.44942590E-05
   70.8000031       7.38269882E-05
   70.9199982       7.31091641E-05
   71.0400009       7.23426492E-05
   71.1600037       7.15293136E-05
   71.2799988       7.06711216E-05
   71.4000015       6.97701107E-05
   71.5199966       6.88284053E-05
   71.6399994       6.78481592E-05
   71.7600021       6.68315333E-05
   71.8799973       6.57806449E-05
   72.0000000       6.46975896E-05
   72.1200027       6.35844117E-05
   72.2399979       6.24432068E-05
   72.3600006       6.12760923E-05
   72.4800034       6.00852109E-05
   72.5999985       5.88727271E-05
   72.7200012       5.76407365E-05