  -30.0000000       0.00000000    
  -29.8799992       0.00000000    
  -29.7600002       0.00000000    
  -29.6399994       0.00000000    
  -29.5200005       0.00000000    
  -29.3999996       0.00000000    
  -29.2800007       0.00000000    
  -29.1599998       3.97928420E-24
  -29.0400009       4.00948463E-23
  -28.9200001       1.91023160E-22
  -28.7999992       5.21973231E-22
  -28.6800003       6.16913108E-22
  -28.5599995      -1.52575352E-21
  -28.4400005      -1.06677017E-20
  -28.3199997      -3.31506718E-20
  -28.2000008      -6.92285614E-20
  -28.0799999      -9.65217605E-20
  -27.9599991      -5.12772590E-20
  -27.8400002       1.69836736E-19
  -27.7199993       6.52154261E-19
  -27.6000004       1.32680980E-18
  -27.4799995       1.79104765E-18
  -27.3600006       1.21891650E-18
  -27.2399998      -1.41921777E-18
  -27.1200008      -6.64287574E-18
  -27.0000000      -1.33178113E-17
  -26.8799992      -1.76104370E-17
  -26.7600002      -1.30453248E-17
  -26.6399994       7.23481280E-18
  -26.5200005       4.56183557E-17
  -26.3999996       9.38351966E-17
  -26.2800007       1.28747764E-16
  -26.1599998       1.14736635E-16
  -26.0400009       1.63241794E-17
  -25.9200001      -1.79456715E-16
  -25.7999992      -4.38061220E-16
  -25.6800003      -6.63261685E-16
  -25.5599995      -7.09186752E-16
  -25.4400005      -4.27752485E-16
  -25.3199997       2.54288370E-16
  -25.2000008       1.25393963E-15
  -25.0799999       2.28666179E-15
  -24.9599991       2.89825346E-15
  -24.8400002       2.59439140E-15
  -24.7199993       1.04859439E-15
  -24.6000004      -1.67662898E-15
  -24.4799995      -4.99239864E-15
  -24.3600006      -7.82388917E-15
  -24.2399998      -8.87499015E-15
  -24.1200008      -7.07941159E-15
  -24.0000000      -2.10693008E-15
  -23.8799992       5.27034361E-15
  -23.7600002       1.31448197E-14
  -23.6399994       1.88820347E-14
  -23.5200005       1.99269837E-14
  -23.3999996       1.47898390E-14
  -23.2800007       3.86352818E-15
  -23.1599998      -1.02942557E-14
  -23.0400009      -2.34571545E-14
  -22.9200001      -3.09923223E-14
  -22.7999992      -2.95635776E-14
  -22.6800003      -1.86916251E-14
  -22.5599995      -1.50287743E-15
  -22.4400005       1.58337732E-14
  -22.3199997       2.60667647E-14
  -22.2000008       2.37469549E-14
  -22.0799999       8.06416193E-15
  -21.9599991      -1.55677879E-14
  -21.8400002      -3.61750662E-14
  -21.7199993      -4.04709530E-14
  -21.6000004      -1.80558947E-14
  -21.4799995       3.30110356E-14
  -21.3600006       1.02413466E-13
  -21.2399998       1.67562348E-13
  -21.1200008       1.98442039E-13
  -21.0000000       1.66835716E-13
  -20.8799992       5.76985223E-14
  -20.7600002      -1.20908573E-13
  -20.6399994      -3.33302261E-13
  -20.5200005      -5.20143499E-13
  -20.3999996      -6.11755492E-13
  -20.2800007      -5.48640668E-13
  -20.1599998      -3.04034223E-13
  -20.0400009       9.86427465E-14
  -19.9200001       5.80574868E-13
  -19.7999992       1.01929055E-12
  -19.6800003       1.27738705E-12
  -19.5599995       1.24249840E-12
  -19.4400005       8.67627205E-13
  -19.3199997       1.98472220E-13
  -19.2000008      -6.23941545E-13
  -19.0799999      -1.39087374E-12
  -18.9599991      -1.87991788E-12
  -18.8400002      -1.92193982E-12
  -18.7199993      -1.46066579E-12
  -18.6000004      -5.84059927E-13
  -18.4799995       4.86764817E-13
  -18.3600006       1.45280522E-12
  -18.2399998       2.02354756E-12
  -18.1200008       2.00944144E-12
  -18.0000000       1.39076554E-12
  -17.8799992       3.38127367E-13
  -17.7600002      -8.26460916E-13
  -17.6399994      -1.72055165E-12
  -17.5200005      -2.01950587E-12
  -17.3999996      -1.56664189E-12
  -17.2800007      -4.39808238E-13
  -17.1599998       1.05018717E-12
  -17.0400009       2.43473817E-12
  -16.9200001       3.21960904E-12
  -16.7999992       3.03887124E-12
  -16.6800003       1.78567003E-12
  -16.5599995      -3.22413916E-13
  -16.4400005      -2.77022741E-12
  -16.3199997      -4.86598695E-12
  -16.2000008      -5.92989590E-12
  -16.0799999      -5.50053709E-12
  -15.9600000      -3.49820823E-12
  -15.8400002      -2.91044397E-13
  -15.7200003       3.36585360E-12
  -15.6000004       6.51175208E-12
  -15.4799995       8.23785484E-12
  -15.3599997       7.95012233E-12
  -15.2399998       5.56010663E-12
  -15.1199999       1.54427794E-12
  -15.0000000      -3.15093329E-12
  -14.8800001      -7.33674579E-12
  -14.7600002      -9.88268235E-12
  -14.6400003      -1.00107787E-11
  -14.5200005      -7.50699069E-12
  -14.3999996      -2.79693413E-12
  -14.2799997       3.13163406E-12
  -14.1599998       8.94061474E-12
  -14.0400000       1.32393497E-11
  -13.9200001       1.49026555E-11
  -13.8000002       1.33391241E-11
  -13.6800003       8.64796082E-12
  -13.5600004       1.62289398E-12
  -13.4399996      -6.40721374E-12
  -13.3199997      -1.38728716E-11
  -13.1999998      -1.93269480E-11
  -13.0799999      -2.17827856E-11
  -12.9600000      -2.09313886E-11
  -12.8400002      -1.71697812E-11
  -12.7200003      -1.14278561E-11
  -12.6000004      -4.84706459E-12
  -12.4799995       1.58275910E-12
  -12.3599997       7.30447126E-12
  -12.2399998       1.22961485E-11
  -12.1199999       1.69628027E-11
  -12.0000000       2.18612958E-11
  -11.8800001       2.73601350E-11
  -11.7600002       3.33522723E-11
  -11.6400003       3.91101977E-11
  -11.5200005       4.33151848E-11
  -11.3999996       4.42348033E-11
  -11.2799997       3.99909134E-11
  -11.1599998       2.88634984E-11
  -11.0400000       9.60324441E-12
  -10.9200001      -1.82481009E-11
  -10.8000002      -5.40295031E-11
  -10.6800003      -9.56554211E-11
  -10.5600004      -1.39413023E-10
  -10.4399996      -1.79972856E-10
  -10.3199997      -2.10709075E-10
  -10.1999998      -2.24351177E-10
  -10.0799999      -2.13875098E-10
  -9.96000004      -1.73435002E-10
  -9.84000015      -9.90875576E-11
  -9.72000027       1.08952257E-11
  -9.60000038       1.56199359E-10
  -9.47999954       3.35030476E-10
  -9.35999966       5.44822798E-10
  -9.23999977       7.82800602E-10
  -9.11999989       1.04616471E-09
  -9.00000000       1.33183908E-09
  -8.88000011       1.63591163E-09
  -8.76000023       1.95305505E-09
  -8.64000034       2.27625585E-09
  -8.52000046       2.59709210E-09
  -8.39999962       2.90661695E-09
  -8.27999973       3.19668780E-09
  -8.15999985       3.46141760E-09
  -8.03999996       3.69836317E-09
  -7.92000008       3.90913613E-09
  -7.80000019       4.09927914E-09
  -7.67999983       4.27745306E-09
  -7.55999994       4.45416237E-09
  -7.44000006       4.64033656E-09
  -7.32000017       4.84609686E-09
  -7.19999981       5.07995024E-09
  -7.07999992       5.34850741E-09
  -6.96000004       5.65666536E-09
  -6.84000015       6.00806915E-09
  -6.71999979       6.40560627E-09
  -6.59999990       6.85169388E-09
  -6.48000002       7.34823935E-09
  -6.36000013       7.89626675E-09
  -6.23999977       8.49539106E-09
  -6.11999989       9.14340514E-09
  -6.00000000       9.83625004E-09
  -5.88000011       1.05685602E-08
  -5.76000023       1.13347634E-08
  -5.63999987       1.21305028E-08
  -5.51999998       1.29540236E-08
  -5.40000010       1.38070710E-08
  -5.28000021       1.46950327E-08
  -5.15999985       1.56262612E-08
  -5.03999996       1.66107945E-08
  -4.92000008       1.76589143E-08
  -4.80000019       1.87800477E-08
  -4.67999983       1.99823802E-08
  -4.55999994       2.12733351E-08
  -4.44000006       2.26606982E-08
  -4.32000017       2.41540725E-08
  -4.19999981       2.57661164E-08
  -4.07999992       2.75132042E-08
  -3.96000004       2.94152418E-08
  -3.83999991       3.14946860E-08
  -3.72000003       3.37748141E-08
  -3.59999990       3.62775587E-08
  -3.48000002       3.90210708E-08
  -3.35999990       4.20173514E-08
  -3.24000001       4.52702871E-08
  -3.11999989       4.87745098E-08
  -3.00000000       5.25157233E-08
  -2.88000011       5.64728317E-08
  -2.75999999       6.06221207E-08
  -2.64000010       6.49430518E-08
  -2.51999998       6.94245585E-08
  -2.40000010       7.40703214E-08
  -2.27999997       7.89011807E-08
  -2.16000009       8.39535161E-08
  -2.03999996       8.92732572E-08
  -1.91999996       9.49067172E-08
  -1.79999995       1.00890716E-07
  -1.67999995       1.07245071E-07
  -1.55999994       1.13970287E-07
  -1.44000006       1.21051997E-07
  -1.32000005       1.28471441E-07
  -1.20000005       1.36219214E-07
  -1.08000004       1.44307862E-07
 -0.959999979       1.52778867E-07
 -0.839999974       1.61700839E-07
 -0.720000029       1.71158192E-07
 -0.600000024       1.81233418E-07
 -0.479999989       1.91987525E-07
 -0.360000014       2.03445381E-07
 -0.239999995       2.15591186E-07
 -0.119999997       2.28376166E-07
  -1.11022302E-15   2.41737183E-07
  0.119999997       2.55621131E-07
  0.239999995       2.70007462E-07
  0.360000014       2.84922038E-07
  0.479999989       3.00437478E-07
  0.600000024       3.16659936E-07
  0.720000029       3.33706254E-07
  0.839999974       3.51678608E-07
  0.959999979       3.70644756E-07
   1.08000004       3.90629765E-07
   1.20000005       4.11621272E-07
   1.32000005       4.33586280E-07
   1.44000006       4.56492955E-07
   1.55999994       4.80330812E-07
   1.67999995       5.05122728E-07
   1.79999995       5.30925718E-07
   1.91999996       5.57821807E-07
   2.03999996       5.85902399E-07
   2.16000009       6.15252361E-07
   2.27999997       6.45938655E-07
   2.40000010       6.78006074E-07
   2.51999998       7.11480766E-07
   2.64000010       7.46377850E-07
   2.75999999       7.82710345E-07
   2.88000011       8.20495302E-07
   3.00000000       8.59756142E-07
   3.11999989       9.00520490E-07
   3.24000001       9.42817223E-07
   3.35999990       9.86673399E-07
   3.48000002       1.03211482E-06
   3.59999990       1.07916856E-06
   3.72000003       1.12786870E-06
   3.83999991       1.17826050E-06
   3.96000004       1.23040195E-06
   4.07999992       1.28436102E-06
   4.19999981       1.34020831E-06
   4.32000017       1.39800841E-06
   4.44000006       1.45781098E-06
   4.55999994       1.51964605E-06
   4.67999983       1.58352555E-06
   4.80000019       1.64944822E-06
   4.92000008       1.71740919E-06
   5.03999996       1.78740765E-06
   5.15999985       1.85945373E-06
   5.28000021       1.93356891E-06
   5.40000010       2.00978388E-06
   5.51999998       2.08813208E-06
   5.63999987       2.16864441E-06
   5.76000023       2.25134499E-06
   5.88000011       2.33625019E-06
   6.00000000       2.42336773E-06
   6.11999989       2.51270194E-06
   6.23999977       2.60425350E-06
   6.36000013       2.69802035E-06
   6.48000002       2.79399819E-06
   6.59999990       2.89217792E-06
   6.71999979       2.99254657E-06
   6.84000015       3.09508732E-06
   6.96000004       3.19978381E-06
   7.07999992       3.30662192E-06
   7.19999981       3.41559485E-06
   7.32000017       3.52670190E-06
   7.44000006       3.63994650E-06
   7.55999994       3.75532909E-06
   7.67999983       3.87283762E-06
   7.80000019       3.99243709E-06
   7.92000008       4.11406563E-06
   8.03999996       4.23762958E-06
   8.15999985       4.36301161E-06
   8.27999973       4.49008121E-06
   8.39999962       4.61870695E-06
   8.52000046       4.74877015E-06
   8.64000034       4.88016894E-06
   8.76000023       5.01281875E-06
   8.88000011       5.14663816E-06
   9.00000000       5.28154123E-06
   9.11999989       5.41742020E-06
   9.23999977       5.55414044E-06
   9.35999966       5.69154190E-06
   9.47999954       5.82944767E-06
   9.60000038       5.96767313E-06
   9.72000027       6.10603865E-06
   9.84000015       6.24437325E-06
   9.96000004       6.38251095E-06
   10.0799999       6.52028257E-06
   10.1999998       6.65750576E-06
   10.3199997       6.79397681E-06
   10.4399996       6.92946469E-06
   10.5600004       7.06371748E-06
   10.6800003       7.19646596E-06
   10.8000002       7.32743638E-06
   10.9200001       7.45635680E-06
   11.0400000       7.58296164E-06
   11.1599998       7.70698898E-06
   11.2799997       7.82817369E-06
   11.3999996       7.94624248E-06
   11.5200005       8.06089975E-06
   11.6400003       8.17182990E-06
   11.7600002       8.27869007E-06
   11.8800001       8.38112373E-06
   12.0000000       8.47876254E-06
   12.1199999       8.57123814E-06
   12.2399998       8.65818129E-06
   12.3599997       8.73922181E-06
   12.4799995       8.81397773E-06
   12.6000004       8.88204249E-06
   12.7200003       8.94297500E-06
   12.8400002       8.99630140E-06
   12.9600000       9.04152785E-06
   13.0799999       9.07815411E-06
   13.1999998       9.10569270E-06
   13.3199997       9.12368432E-06
   13.4399996       9.13168515E-06
   13.5600004       9.12925680E-06
   13.6800003       9.11593452E-06
   13.8000002       9.09120263E-06
   13.9200001       9.05447905E-06
   14.0400000       9.00512350E-06
   14.1599998       8.94245568E-06
   14.2799997       8.86579437E-06
   14.3999996       8.77448110E-06
   14.5200005       8.66790469E-06
   14.6400003       8.54549762E-06
   14.7600002       8.40671964E-06
   14.8800001       8.25102779E-06
   15.0000000       8.07784727E-06
   15.1199999       7.88654870E-06
   15.2399998       7.67643633E-06
   15.3599997       7.44675845E-06
   15.4799995       7.19672107E-06
   15.6000004       6.92551293E-06
   15.7200003       6.63232368E-06
   15.8400002       6.31636158E-06
   15.9600000       5.97685403E-06
   16.0799999       5.61304523E-06
   16.2000008       5.22417940E-06
   16.3199997       4.80948484E-06
   16.4400005       4.36815981E-06
   16.5599995       3.89936258E-06
   16.6800003       3.40220799E-06
   16.7999992       2.87577745E-06
   16.9200001       2.31913236E-06
   17.0400009       1.73133094E-06
   17.1599998       1.11144584E-06
   17.2800007       4.58573680E-07
   17.3999996      -2.28161596E-07
   17.5200005      -9.49618880E-07
   17.6399994      -1.70665544E-06
   17.7600002      -2.50015023E-06
   17.8799992      -3.33102662E-06
   18.0000000      -4.20026799E-06
   18.1200008      -5.10892278E-06
   18.2399998      -6.05809100E-06
   18.3600006      -7.04890226E-06
   18.4799995      -8.08248296E-06
   18.6000004      -9.15992314E-06
   18.7199993      -1.02822587E-05
   18.8400002      -1.14504774E-05
   18.9599991      -1.26655304E-05
   19.0799999      -1.39283620E-05
   19.2000008      -1.52399434E-05
   19.3199997      -1.66013069E-05
   19.4400005      -1.80135503E-05
   19.5599995      -1.94778422E-05
   19.6800003      -2.09953869E-05
   19.7999992      -2.25674103E-05
   19.9200001      -2.41951111E-05
   20.0400009      -2.58796663E-05
   20.1599998      -2.76222145E-05
   20.2800007      -2.94238453E-05
   20.3999996      -3.12856318E-05
   20.5200005      -3.32086238E-05
   20.6399994      -3.51938615E-05
   20.7600002      -3.72423929E-05
   20.8799992      -3.93552800E-05
   21.0000000      -4.15335962E-05
   21.1200008      -4.37784365E-05
   21.2399998      -4.60909105E-05
   21.3600006      -4.84721349E-05
   21.4799995      -5.09232304E-05
   21.6000004      -5.34452847E-05
   21.7199993      -5.60393455E-05
   21.8400002      -5.87064060E-05
   21.9599991      -6.14474193E-05
   22.0799999      -6.42632731E-05
   22.2000008      -6.71548332E-05
   22.3199997      -7.01229510E-05
   22.4400005      -7.31684413E-05
   22.5599995      -7.62921554E-05
   22.6800003      -7.94949228E-05
   22.7999992      -8.27775948E-05
   22.9200001      -8.61410226E-05
   23.0400009      -8.95860358E-05
   23.1599998      -9.31134491E-05
   23.2800007      -9.67240194E-05
   23.3999996      -1.00418401E-04
   23.5200005      -1.04197148E-04
   23.6399994      -1.08060660E-04
   23.7600002      -1.12009249E-04
   23.8799992      -1.16043127E-04
   24.0000000      -1.20162455E-04
   24.1200008      -1.24367376E-04
   24.2399998      -1.28658095E-04
   24.3600006      -1.33034846E-04
   24.4799995      -1.37497875E-04
   24.6000004      -1.42047400E-04
   24.7199993      -1.46683597E-04
   24.8400002      -1.51406464E-04
   24.9599991      -1.56215843E-04
   25.0799999      -1.61111428E-04
   25.2000008      -1.66092708E-04
   25.3199997      -1.71159074E-04
   25.4400005      -1.76309797E-04
   25.5599995      -1.81544165E-04
   25.6800003      -1.86861391E-04
   25.7999992      -1.92260719E-04
   25.9200001      -1.97741334E-04
   26.0400009      -2.03302305E-04
   26.1599998      -2.08942627E-04
   26.2800007      -2.14661079E-04
   26.3999996      -2.20456292E-04
   26.5200005      -2.26326752E-04
   26.6399994      -2.32270802E-04
   26.7600002      -2.38286710E-04
   26.8799992      -2.44372641E-04
   27.0000000      -2.50526791E-04
   27.1200008      -2.56747182E-04
   27.2399998      -2.63031805E-04
   27.3600006      -2.69378565E-04
   27.4799995      -2.75785074E-04
   27.6000004      -2.82248890E-04
   27.7199993      -2.88767391E-04
   27.8400002      -2.95337697E-04
   27.9599991      -3.01956898E-04
   28.0799999      -3.08621879E-04
   28.2000008      -3.15329467E-04
   28.3199997      -3.22076434E-04
   28.4400005      -3.28859431E-04
   28.5599995      -3.35675082E-04
   28.6800003      -3.42519954E-04
   28.7999992      -3.49390466E-04
   28.9200001      -3.56282893E-04
   29.0400009      -3.63193394E-04
   29.1599998      -3.70117923E-04
   29.2800007      -3.77052231E-04
   29.3999996      -3.83991923E-04
   29.5200005      -3.90932459E-04
   29.6399994      -3.97869240E-04
   29.7600002      -4.04797494E-04
   29.8799992      -4.11712477E-04
   30.0000000      -4.18609416E-04
   30.1200008      -4.25483333E-04
   30.2399998      -4.32329281E-04
   30.3600006      -4.39142168E-04
   30.4799995      -4.45916754E-04
   30.6000004      -4.52647830E-04
   30.7199993      -4.59329982E-04
   30.8400002      -4.65957884E-04
   30.9599991      -4.72526066E-04
   31.0799999      -4.79028997E-04
   31.2000008      -4.85461118E-04
   31.3199997      -4.91816842E-04
   31.4400005      -4.98090405E-04
   31.5599995      -5.04276133E-04
   31.6800003      -5.10368147E-04
   31.7999992      -5.16360626E-04
   31.9200001      -5.22247690E-04
   32.0400009      -5.28023404E-04
   32.1599998      -5.33681829E-04
   32.2799988      -5.39216970E-04
   32.4000015      -5.44622832E-04
   32.5200005      -5.49893710E-04
   32.6399994      -5.55023842E-04
   32.7599983      -5.60007582E-04
   32.8800011      -5.64839283E-04
   33.0000000      -5.69513300E-04
   33.1199989      -5.74024045E-04
   33.2400017      -5.78365871E-04
   33.3600006      -5.82533132E-04
   33.4799995      -5.86520357E-04
   33.5999985      -5.90321957E-04
   33.7200012      -5.93932578E-04
   33.8400002      -5.97346923E-04
   33.9599991      -6.00560044E-04
   34.0800018      -6.03566994E-04
   34.2000008      -6.06363115E-04
   34.3199997      -6.08943868E-04
   34.4399986      -6.11304888E-04
   34.5600014      -6.13441924E-04
   34.6800003      -6.15350727E-04
   34.7999992      -6.17027225E-04
   34.9199982      -6.18467457E-04
   35.0400009      -6.19667640E-04
   35.1599998      -6.20624225E-04
   35.2799988      -6.21333835E-04
   35.4000015      -6.21793442E-04
   35.5200005      -6.22000371E-04
   35.6399994      -6.21952116E-04
   35.7599983      -6.21646410E-04
   35.8800011      -6.21081039E-04
   36.0000000      -6.20254083E-04
   36.1199989      -6.19163737E-04
   36.2400017      -6.17808430E-04
   36.3600006      -6.16187055E-04
   36.4799995      -6.14298508E-04
   36.5999985      -6.12142263E-04
   36.7200012      -6.09717914E-04
   36.8400002      -6.07025519E-04
   36.9599991      -6.04065426E-04
   37.0800018      -6.00838161E-04
   37.2000008      -5.97344653E-04
   37.3199997      -5.93585952E-04
   37.4399986      -5.89563278E-04
   37.5600014      -5.85278263E-04
   37.6800003      -5.80732711E-04
   37.7999992      -5.75928774E-04
   37.9199982      -5.70868957E-04
   38.0400009      -5.65555878E-04
   38.1599998      -5.59992681E-04
   38.2799988      -5.54182741E-04
   38.4000015      -5.48129843E-04
   38.5200005      -5.41837944E-04
   38.6399994      -5.35311468E-04
   38.7599983      -5.28554898E-04
   38.8800011      -5.21573122E-04
   39.0000000      -5.14371262E-04
   39.1199989      -5.06954675E-04
   39.2400017      -4.99329122E-04
   39.3600006      -4.91500366E-04
   39.4799995      -4.83474578E-04
   39.5999985      -4.75258043E-04
   39.7200012      -4.66857193E-04
   39.8400002      -4.58278722E-04
   39.9599991      -4.49529471E-04
   40.0800018      -4.40616626E-04
   40.2000008      -4.31547553E-04
   40.3199997      -4.22329904E-04
   40.4399986      -4.12971596E-04
   40.5600014      -4.03480633E-04
   40.6800003      -3.93865223E-04
   40.7999992      -3.84133775E-04
   40.9199982      -3.74294672E-04
   41.0400009      -3.64356529E-04
   41.1599998      -3.54328076E-04
   41.2799988      -3.44218104E-04
   41.4000015      -3.34035547E-04
   41.5200005      -3.23789369E-04
   41.6399994      -3.13488476E-04
   41.7599983      -3.03141889E-04
   41.8800011      -2.92758603E-04
   42.0000000      -2.82347639E-04
   42.1199989      -2.71918077E-04
   42.2400017      -2.61479086E-04
   42.3600006      -2.51039717E-04
   42.4799995      -2.40609079E-04
   42.5999985      -2.30196194E-04
   42.7200012      -2.19809997E-04
   42.8400002      -2.09459395E-04
   42.9599991      -1.99153204E-04
   43.0800018      -1.88900260E-04
   43.2000008      -1.78709350E-04
   43.3199997      -1.68589162E-04
   43.4399986      -1.58548268E-04
   43.5600014      -1.48595020E-04
   43.6800003      -1.38737552E-04
   43.7999992      -1.28983811E-04
   43.9199982      -1.19341435E-04
   44.0400009      -1.09817855E-04
   44.1599998      -1.00420293E-04
   44.2799988      -9.11557436E-05
   44.4000015      -8.20310233E-05
   44.5200005      -7.30527827E-05
   44.6399994      -6.42275336E-05
   44.7599983      -5.55615989E-05
   44.8800011      -4.70611485E-05
   45.0000000      -3.87321270E-05
   45.1199989      -3.05801987E-05
   45.2400017      -2.26106695E-05
   45.3600006      -1.48284898E-05
   45.4799995      -7.23820494E-06
   45.5999985       1.56001605E-07
   45.7200012       7.35028470E-06
   45.8400002       1.43410989E-05
   45.9599991       2.11251900E-05
   46.0800018       2.76995743E-05
   46.2000008       3.40615406E-05
   46.3199997       4.02086516E-05
   46.4399986       4.61387208E-05
   46.5600014       5.18498091E-05
   46.6800003       5.73402285E-05
   46.7999992       6.26085675E-05
   46.9199982       6.76537602E-05
   47.0400009       7.24751299E-05
   47.1599998       7.70723782E-05
   47.2799988       8.14456507E-05
   47.4000015       8.55954349E-05
   47.5200005       8.95224948E-05
   47.6399994       9.32278344E-05
   47.7599983       9.67126471E-05
   47.8800011       9.99783369E-05
   48.0000000       1.03026556E-04
   48.1199989       1.05859268E-04
   48.2400017       1.08478736E-04
   48.3600006       1.10887551E-04
   48.4799995       1.13088536E-04
   48.5999985       1.15084753E-04
   48.7200012       1.16879419E-04
   48.8400002       1.18475968E-04
   48.9599991       1.19878008E-04
   49.0800018       1.21089390E-04
   49.2000008       1.22114201E-04
   49.3199997       1.22956713E-04
   49.4399986       1.23621328E-04
   49.5600014       1.24112630E-04
   49.6800003       1.24435275E-04
   49.7999992       1.24594022E-04
   49.9199982       1.24593862E-04
   50.0400009       1.24439990E-04
   50.1599998       1.24137849E-04
   50.2799988       1.23693055E-04
   50.4000015       1.23111298E-04
   50.5200005       1.22398254E-04
   50.6399994       1.21559540E-04
   50.7599983       1.20600678E-04
   50.8800011       1.19527176E-04
   51.0000000       1.18344549E-04
   51.1199989       1.17058407E-04
   51.2400017       1.15674462E-04
   51.3600006       1.14198505E-04
   51.4799995       1.12636364E-04
   51.5999985       1.10993846E-04
   51.7200012       1.09276698E-04
   51.8400002       1.07490632E-04
   51.9599991       1.05641273E-04
   52.0800018       1.03734208E-04
   52.2000008       1.01774953E-04
   52.3199997       9.97689349E-05
   52.4399986       9.77214731E-05
   52.5600014       9.56377989E-05
   52.6800003       9.35230273E-05
   52.7999992       9.13822078E-05
   52.9199982       8.92203607E-05
   53.0400009       8.70424337E-05
   53.1599998       8.48532727E-05
   53.2799988       8.26575852E-05
   53.4000015       8.04598967E-05
   53.5200005       7.82645220E-05
   53.6399994       7.60755574E-05
   53.7599983       7.38969247E-05
   53.8800011       7.17324219E-05
   54.0000000       6.95857088E-05
   54.1199989       6.74603507E-05
   54.2400017       6.53597453E-05
   54.3600006       6.32871743E-05
   54.4799995       6.12457006E-05
   54.5999985       5.92382494E-05
   54.7200012       5.72675744E-05
   54.8400002       5.53362843E-05
   54.9599991       5.34468709E-05
   55.0800018       5.16017026E-05
   55.2000008       4.98030131E-05
   55.3199997       4.80528688E-05
   55.4399986       4.63531651E-05
   55.5600014       4.47055791E-05
   55.6800003       4.31115623E-05
   55.7999992       4.15723298E-05
   55.9199982       4.00888784E-05
   56.0400009       3.86620050E-05
   56.1599998       3.72923641E-05
   56.2799988       3.59805090E-05
   56.4000015       3.47269342E-05
   56.5200005       3.35320947E-05
   56.6399994       3.23963941E-05
   56.7599983       3.13201635E-05
   56.8800011       3.03035995E-05
   57.0000000       2.93467419E-05
   57.1199989       2.84494527E-05
   57.2400017       2.76114042E-05
   57.3600006       2.68321037E-05
   57.4799995       2.61108926E-05
   57.5999985       2.54469633E-05
   57.7200012       2.48393644E-05
   57.8400002       2.42870083E-05
   57.9599991       2.37887161E-05
   58.0800018       2.33432565E-05
   58.2000008       2.29494053E-05
   58.3199997       2.26059874E-05
   58.4399986       2.23118768E-05
   58.5600014       2.20659658E-05
   58.6800003       2.18671030E-05
   58.7999992       2.17140278E-05
   58.9199982       2.16053268E-05
   59.0400009       2.15394357E-05
   59.1599998       2.15146883E-05
   59.2799988       2.15293585E-05
   59.4000015       2.15817199E-05
   59.5200005       2.16700591E-05
   59.6399994       2.17926554E-05
   59.7599983       2.19477479E-05
   59.8800011       2.21335122E-05
   60.0000000       2.23480765E-05
   60.1199989       2.25895456E-05
   60.2400017       2.28560912E-05
   60.3600006       2.31459744E-05
   60.4799995       2.34575746E-05
   60.5999985       2.37893637E-05
   60.7200012       2.41398375E-05
   60.8400002       2.45074662E-05
   60.9599991       2.48906381E-05
   61.0800018       2.52876707E-05
   61.2000008       2.56968342E-05
   61.3199997       2.61164005E-05
   61.4399986       2.65446979E-05
   61.5600014       2.69801203E-05
   61.6800003       2.74211416E-05
   61.7999992       2.78662956E-05
   61.9199982       2.83141617E-05
   62.0400009       2.87633557E-05
   62.1599998       2.92125260E-05
   62.2799988       2.96603685E-05
   62.4000015       3.01056079E-05
   62.5200005       3.05470312E-05
   62.6399994       3.09834650E-05
   62.7599983       3.14137978E-05
   62.8800011       3.18370003E-05
   63.0000000       3.22521155E-05
   63.1199989       3.26582958E-05
   63.2400017       3.30547555E-05
   63.3600006       3.34407523E-05
   63.4799995       3.38155442E-05
   63.5999985       3.41783489E-05
   63.7200012       3.45283479E-05
   63.8400002       3.48647118E-05
   63.9599991       3.51866292E-05
   64.0800018       3.54933545E-05
   64.1999969       3.57842473E-05
   64.3199997       3.60587583E-05
   64.4400024       3.63164399E-05
   64.5599976       3.65569176E-05
   64.6800003       3.67798966E-05
   64.8000031       3.69851805E-05
   64.9199982       3.71726746E-05
   65.0400009       3.73423863E-05
   65.1600037       3.74944248E-05
   65.2799988       3.76289099E-05
   65.4000015       3.77459110E-05
   65.5199966       3.78453660E-05
   65.6399994       3.79270714E-05
   65.7600021       3.79907251E-05
   65.8799973       3.80360034E-05
   66.0000000       3.80626589E-05
   66.1200027       3.80706188E-05
   66.2399979       3.80600068E-05
   66.3600006       3.80311358E-05
   66.4800034       3.79844387E-05
   66.5999985       3.79204103E-05
   66.7200012       3.78395271E-05
   66.8399963       3.77422475E-05
   66.9599991       3.76289900E-05
   67.0800018       3.75001437E-05
   67.1999969       3.73560906E-05
   67.3199997       3.71971582E-05
   67.4400024       3.70236376E-05
   67.5599976       3.68357578E-05
   67.6800003       3.66337117E-05
   67.8000031       3.64176885E-05
   67.9199982       3.61879283E-05
   68.0400009       3.59447913E-05
   68.1600037       3.56887649E-05
   68.2799988       3.54204494E-05
   68.4000015       3.51405288E-05
   68.5199966       3.48496797E-05
   68.6399994       3.45485278E-05
   68.7600021       3.42376043E-05
   68.8799973       3.39173603E-05
   69.0000000       3.35881778E-05
   69.1200027       3.32504496E-05
   69.2399979       3.29045833E-05
   69.3600006       3.25510373E-05
   69.4800034       3.21903171E-05
   69.5999985       3.18229322E-05
   69.7200012       3.14493882E-05
   69.8399963       3.10701435E-05
   69.9599991       3.06856200E-05
   70.0800018       3.02962126E-05
   70.1999969       2.99023050E-05
   70.3199997       2.95043046E-05
   70.4400024       2.91026427E-05
   70.5599976       2.86977593E-05
   70.6800003       2.82901019E-05
   70.8000031       2.78801035E-05
   70.9199982       2.74681897E-05
   71.0400009       2.70547753E-05
   71.1600037       2.66402967E-05
   71.2799988       2.62252142E-05
   71.4000015       2.58100044E-05
   71.5199966       2.53951312E-05
   71.6399994       2.49809946E-05
   71.7600021       2.45679003E-05
   71.8799973       2.41560319E-05
   72.0000000       2.37454860E-05
   72.1200027       2.33363116E-05
   72.2399979       2.29285997E-05
   72.3600006       2.25225267E-05
   72.4800034       2.21183836E-05
   72.5999985       2.17165507E-05
   72.7200012       2.13174517E-05