  -30.0000000       0.00000000    
  -29.8799992       0.00000000    
  -29.7600002       0.00000000    
  -29.6399994       0.00000000    
  -29.5200005       0.00000000    
  -29.3999996       0.00000000    
  -29.2800007      -1.40129846E-45
  -29.1599998      -9.80908925E-45
  -29.0400009       4.20389539E-45
  -28.9200001       4.16185644E-43
  -28.7999992       1.95621266E-42
  -28.6800003       3.46260851E-42
  -28.5599995      -4.04835126E-42
  -28.4400005      -4.35817835E-41
  -28.3199997      -1.30214258E-40
  -28.2000008      -1.86609515E-40
  -28.0799999       8.12837187E-41
  -27.9599991       1.14724726E-39
  -27.8400002       3.10054241E-39
  -27.7199993       4.38012689E-39
  -27.6000004       5.88901285E-40
  -27.4799995      -1.43337405E-38
  -27.3600006      -4.17540055E-38
  -27.2399998      -6.67628138E-38
  -27.1200008      -4.86089362E-38
  -27.0000000       7.10532366E-38
  -26.8799992       3.25391324E-37
  -26.7600002       6.45655868E-37
  -26.6399994       7.88551945E-37
  -26.5200005       3.46592409E-37
  -26.3999996      -1.07217162E-36
  -26.2800007      -3.47270476E-36
  -26.1599998      -6.03032620E-36
  -26.0400009      -6.86598975E-36
  -25.9200001      -3.41165281E-36
  -25.7999992       6.38737471E-36
  -25.6800003       2.21729932E-35
  -25.5599995       3.92785152E-35
  -25.4400005       4.80306217E-35
  -25.3199997       3.55443433E-35
  -25.2000008      -9.25690968E-36
  -25.0799999      -8.79581900E-35
  -24.9599991      -1.84645493E-34
  -24.8400002      -2.61577500E-34
  -24.7199993      -2.63230379E-34
  -24.6000004      -1.32208963E-34
  -24.4799995       1.63167271E-34
  -24.3600006       5.95721252E-34
  -24.2399998       1.05347317E-33
  -24.1200008       1.33809295E-33
  -24.0000000       1.20358701E-33
  -23.8799992       4.41077118E-34
  -23.7600002      -1.00310930E-33
  -23.6399994      -2.91176361E-33
  -23.5200005      -4.73775651E-33
  -23.3999996      -5.65882687E-33
  -23.2800007      -4.78174792E-33
  -23.1599998      -1.48318688E-33
  -23.0400009       4.19113952E-33
  -22.9200001       1.12097323E-32
  -22.7999992       1.74922434E-32
  -22.6800003       2.02430883E-32
  -22.5599995       1.67245251E-32
  -22.4400005       5.35120955E-33
  -22.3199997      -1.31914476E-32
  -22.2000008      -3.52351993E-32
  -22.0799999      -5.42657916E-32
  -21.9599991      -6.21924909E-32
  -21.8400002      -5.17036958E-32
  -21.7199993      -1.92281150E-32
  -21.6000004       3.23814575E-32
  -21.4799995       9.25294022E-32
  -21.3600006       1.43872503E-31
  -21.2399998       1.66040070E-31
  -21.1200008       1.41632458E-31
  -21.0000000       6.30995082E-32
  -20.8799992      -6.16202250E-32
  -20.7600002      -2.06986453E-31
  -20.6399994      -3.32969237E-31
  -20.5200005      -3.93771541E-31
  -20.3999996      -3.50796032E-31
  -20.2800007      -1.86798618E-31
  -20.1599998       8.29020741E-32
  -20.0400009       4.06303557E-31
  -19.9200001       7.00611137E-31
  -19.7999992       8.68776842E-31
  -19.6800003       8.24428355E-31
  -19.5599995       5.20098604E-31
  -19.4400005      -2.83889526E-32
  -19.3199997      -7.29163848E-31
  -19.2000008      -1.41973998E-30
  -19.0799999      -1.89396007E-30
  -18.9599991      -1.94880149E-30
  -18.8400002      -1.44347048E-30
  -18.7199993      -3.57639783E-31
  -18.6000004       1.16784188E-30
  -18.4799995       2.82427113E-30
  -18.3600006       4.17398446E-30
  -18.2399998       4.73664866E-30
  -18.1200008       4.11184877E-30
  -18.0000000       2.11370924E-30
  -17.8799992      -1.11631743E-30
  -17.7600002      -5.05488864E-30
  -17.6399994      -8.83012774E-30
  -17.5200005      -1.13567244E-29
  -17.3999996      -1.15640605E-29
  -17.2800007      -8.68354491E-30
  -17.1599998      -2.53872869E-30
  -17.0400009       6.23354159E-30
  -16.9200001       1.61062798E-29
  -16.7999992       2.47931266E-29
  -16.6800003       2.96191294E-29
  -16.5599995       2.81132929E-29
  -16.4400005       1.87381097E-29
  -16.3199997       1.60071429E-30
  -16.2000008      -2.10634143E-29
  -16.0799999      -4.48536204E-29
  -15.9600000      -6.37763877E-29
  -15.8400002      -7.14557685E-29
  -15.7200003      -6.28182797E-29
  -15.6000004      -3.58836469E-29
  -15.4799995       6.85548606E-30
  -15.3599997       5.80027747E-29
  -15.2399998       1.06162146E-28
  -15.1199999       1.38240940E-28
  -15.0000000       1.42789168E-28
  -14.8800001       1.13593226E-28
  -14.7600002       5.24703423E-29
  -14.6400003      -2.97909223E-29
  -14.5200005      -1.15061314E-28
  -14.3999996      -1.82129790E-28
  -14.2799997      -2.12784444E-28
  -14.1599998      -1.98060601E-28
  -14.0400000      -1.42460219E-28
  -13.9200001      -6.40154919E-29
  -13.8000002       1.10273543E-29
  -13.6800003       5.83898144E-29
  -13.5600004       6.80425091E-29
  -13.4399996       5.37680400E-29
  -13.3199997       5.43187235E-29
  -13.1999998       1.21762888E-28
  -13.0799999       2.96536011E-28
  -12.9600000       5.74802025E-28
  -12.8400002       8.80296644E-28
  -12.7200003       1.05708575E-27
  -12.6000004       8.98544830E-28
  -12.4799995       2.19116974E-28
  -12.3599997      -1.04084496E-27
  -12.2399998      -2.70723023E-27
  -12.1199999      -4.30901287E-27
  -12.0000000      -5.11337174E-27
  -11.8800001      -4.29832165E-27
  -11.7600002      -1.26329449E-27
  -11.6400003       3.98135749E-27
  -11.5200005       1.04709121E-26
  -11.3999996       1.61620944E-26
  -11.2799997       1.82024277E-26
  -11.1599998       1.36956792E-26
  -11.0400000       9.12160577E-28
  -10.9200001      -1.93232357E-26
  -10.8000002      -4.25539984E-26
  -10.6800003      -6.05523036E-26
  -10.5600004      -6.26932598E-26
  -10.4399996      -3.91018598E-26
  -10.3199997       1.47680185E-26
  -10.1999998       9.32456146E-26
  -10.0799999       1.77110182E-25
  -9.96000004       2.34046550E-25
  -9.84000015       2.24773909E-25
  -9.72000027       1.15425474E-25
  -9.60000038      -1.05480823E-25
  -9.47999954      -4.09895356E-25
  -9.35999966      -7.19765121E-25
  -9.23999977      -9.11071039E-25
  -9.11999989      -8.38590499E-25
  -9.00000000      -3.82669276E-25
  -8.88000011       4.88742324E-25
  -8.76000023       1.65913738E-24
  -8.64000034       2.82818586E-24
  -8.52000046       3.52976798E-24
  -8.39999962       3.22479791E-24
  -8.27999973       1.47269248E-24
  -8.15999985      -1.84302914E-24
  -8.03999996      -6.29332996E-24
  -7.92000008      -1.07739009E-23
  -7.80000019      -1.35655566E-23
  -7.67999983      -1.26625160E-23
  -7.55999994      -6.38532416E-24
  -7.44000006       5.80388870E-24
  -7.32000017       2.24854672E-23
  -7.19999981       3.97725998E-23
  -7.07999992       5.14598076E-23
  -6.96000004       5.01180656E-23
  -6.84000015       2.92222573E-23
  -6.71999979      -1.39416319E-23
  -6.59999990      -7.52597033E-23
  -6.48000002      -1.41717751E-22
  -6.36000013      -1.91520521E-22
  -6.23999977      -1.97486683E-22
  -6.11999989      -1.34164465E-22
  -6.00000000       1.20076991E-23
  -5.88000011       2.31611783E-22
  -5.76000023       4.83750257E-22
  -5.63999987       6.94499055E-22
  -5.51999998       7.66387937E-22
  -5.40000010       6.01107870E-22
  -5.28000021       1.34057596E-22
  -5.15999985      -6.25523430E-22
  -5.03999996      -1.56016512E-21
  -4.92000008      -2.43045293E-21
  -4.80000019      -2.89709892E-21
  -4.67999983      -2.58891598E-21
  -4.55999994      -1.21589431E-21
  -4.44000006       1.28937757E-21
  -4.32000017       4.63666480E-21
  -4.19999981       8.09888337E-21
  -4.07999992       1.05432473E-20
  -3.96000004       1.06162177E-20
  -3.83999991       7.09460694E-21
  -3.72000003      -6.34935235E-22
  -3.59999990      -1.20672194E-20
  -3.48000002      -2.51972139E-20
  -3.35999990      -3.64552552E-20
  -3.24000001      -4.11328840E-20
  -3.11999989      -3.43937692E-20
  -3.00000000      -1.28157677E-20
  -2.88000011       2.37901539E-20
  -2.75999999       7.07493071E-20
  -2.64000010       1.17703846E-19
  -2.51999998       1.49255992E-19
  -2.40000010       1.47556446E-19
  -2.27999997       9.69177409E-20
  -2.16000009      -1.00820012E-20
  -2.03999996      -1.66265655E-19
  -1.91999996      -3.45211550E-19
  -1.79999995      -5.00562092E-19
  -1.67999995      -5.71342955E-19
  -1.55999994      -4.94395926E-19
  -1.44000006      -2.23296967E-19
  -1.32000005       2.49187022E-19
  -1.20000005       8.70494788E-19
  -1.08000004       1.51677979E-18
 -0.959999979       1.99825515E-18
 -0.839999974       2.08738387E-18
 -0.720000029       1.57161421E-18
 -0.600000024       3.25599951E-19
 -0.479999989      -1.61033743E-18
 -0.360000014      -3.96655065E-18
 -0.239999995      -6.22111579E-18
 -0.119999997      -7.64268729E-18
  -1.11022302E-15  -7.41559809E-18
  0.119999997      -4.84630066E-18
  0.239999995       3.74340379E-19
  0.360000014       7.90605995E-18
  0.479999989       1.65685666E-17
  0.600000024       2.43138955E-17
  0.720000029       2.84410072E-17
  0.839999974       2.60954506E-17
  0.959999979       1.50326362E-17
   1.08000004      -5.46192197E-18
   1.20000005      -3.36926843E-17
   1.32000005      -6.49838449E-17
   1.44000006      -9.17139151E-17
   1.55999994      -1.04203006E-16
   1.67999995      -9.25640980E-17
   1.79999995      -4.94051356E-17
   1.91999996       2.70164864E-17
   2.03999996       1.29876607E-16
   2.16000009       2.42013248E-16
   2.27999997       3.36268692E-16
   2.40000010       3.78728415E-16
   2.51999998       3.35168211E-16
   2.64000010       1.80275994E-16
   2.75999999      -9.17127107E-17
   2.88000011      -4.57256178E-16
   3.00000000      -8.57600742E-16
   3.11999989      -1.19986812E-15
   3.24000001      -1.36766948E-15
   3.35999990      -1.24226985E-15
   3.48000002      -7.32958520E-16
   3.59999990       1.87657675E-16
   3.72000003       1.45067331E-15
   3.83999991       2.86967330E-15
   3.96000004       4.14138040E-15
   4.07999992       4.87654147E-15
   4.19999981       4.66493994E-15
   4.32000017       3.17127759E-15
   4.44000006       2.49635750E-16
   4.55999994      -3.94503943E-15
   4.67999983      -8.87733304E-15
   4.80000019      -1.36154439E-14
   4.92000008      -1.69068877E-14
   5.03999996      -1.73616360E-14
   5.15999985      -1.37381841E-14
   5.28000021      -5.30154449E-15
   5.40000010       7.80644961E-15
   5.51999998       2.42685358E-14
   5.63999987       4.14622391E-14
   5.76000023       5.55907757E-14
   5.88000011       6.21379169E-14
   6.00000000       5.66565397E-14
   6.11999989       3.58268001E-14
   6.23999977      -1.36490519E-15
   6.36000013      -5.25538915E-14
   6.48000002      -1.11313580E-13
   6.59999990      -1.67149687E-13
   6.71999979      -2.06406656E-13
   6.84000015      -2.14195591E-13
   6.96000004      -1.77262190E-13
   7.07999992      -8.74786219E-14
   7.19999981       5.45969384E-14
   7.32000017       2.36844696E-13
   7.44000006       4.34238637E-13
   7.55999994       6.09820625E-13
   7.67999983       7.18537426E-13
   7.80000019       7.14048341E-13
   7.92000008       5.58020101E-13
   8.03999996       2.30755627E-13
   8.15999985      -2.58627836E-13
   8.27999973      -8.64705388E-13
   8.39999962      -1.50329629E-12
   8.52000046      -2.05609965E-12
   8.64000034      -2.38362932E-12
   8.76000023      -2.34635553E-12
   8.88000011      -1.83230341E-12
   9.00000000      -7.87576818E-13
   9.11999989       7.55302830E-13
   9.23999977       2.65737280E-12
   9.35999966       4.66776314E-12
   9.47999954       6.43796388E-12
   9.60000038       7.55868371E-12
   9.72000027       7.61865310E-12
   9.84000015       6.28047614E-12
   9.96000004       3.36414924E-12
   10.0799999      -1.07497756E-12
   10.1999998      -6.68945888E-12
   10.3199997      -1.28200506E-11
   10.4399996      -1.85262534E-11
   10.5600004      -2.26746746E-11
   10.6800003      -2.40845156E-11
   10.8000002      -2.17193329E-11
   10.9200001      -1.49036651E-11
   11.0400000      -3.53378676E-12
   11.1599998       1.17543744E-11
   11.2799997       2.94984454E-11
   11.3999996       4.74375504E-11
   11.5200005       6.26772870E-11
   11.6400003       7.19968529E-11
   11.7600002       7.22817639E-11
   11.8800001       6.10421574E-11
   12.0000000       3.69551577E-11
   12.1199999       3.53035174E-13
   12.2399998      -4.64283959E-11
   12.3599997      -9.89229809E-11
   12.4799995      -1.50694041E-10
   12.6000004      -1.93816643E-10
   12.7200003      -2.19678623E-10
   12.8400002      -2.20051324E-10
   12.9600000      -1.88334903E-10
   13.0799999      -1.20842253E-10
   13.1999998      -1.79578089E-11
   13.3199997       1.15004617E-10
   13.4399996       2.67410843E-10
   13.5600004       4.23517138E-10
   13.6800003       5.63365576E-10
   13.8000002       6.64378608E-10
   13.9200001       7.03589687E-10
   14.0400000       6.60364097E-10
   14.1599998       5.19391641E-10
   14.2799997       2.73668949E-10
   14.3999996      -7.28502814E-11
   14.5200005      -5.03274811E-10
   14.6400003      -9.86791204E-10
   14.7600002      -1.47895807E-09
   14.8800001      -1.92349470E-09
   15.0000000      -2.25568186E-09
   15.1199999      -2.40737519E-09
   15.2399998      -2.31349095E-09
   15.3599997      -1.91967131E-09
   15.4799995      -1.19067456E-09
   15.6000004      -1.18858173E-10
   15.7200003       1.26801436E-09
   15.8400002       2.90056557E-09
   15.9600000       4.66419348E-09
   16.0799999       6.39908482E-09
   16.2000008       7.90481103E-09
   16.3199997       8.95028229E-09
   16.4400005       9.28952026E-09
   16.5599995       8.68324612E-09
   16.6800003       6.92568403E-09
   16.7999992       3.87528276E-09
   16.9200001      -5.12740517E-10
   17.0400009      -6.15487705E-09
   17.1599998      -1.28123512E-08
   17.2800007      -2.00727133E-08
   17.3999996      -2.73441803E-08
   17.5200005      -3.38666837E-08
   17.6399994      -3.87429182E-08
   17.7600002      -4.09914058E-08
   17.8799992      -3.96219377E-08
   18.0000000      -3.37315562E-08
   18.1200008      -2.26167085E-08
   18.2399998      -5.89473048E-09
   18.3600006       1.63748659E-08
   18.4799995       4.35808403E-08
   18.6000004       7.44754800E-08
   18.7199993       1.07128379E-07
   18.8400002       1.38931753E-07
   18.9599991       1.66668798E-07
   19.0799999       1.86652954E-07
   19.2000008       1.94942302E-07
   19.3199997       1.87626938E-07
   19.4400005       1.61181759E-07
   19.5599995       1.12869763E-07
   19.6800003       4.11750243E-08
   19.7999992      -5.37617915E-08
   19.9200001      -1.69736978E-07
   20.0400009      -3.02140990E-07
   20.1599998      -4.43714754E-07
   20.2800007      -5.84438453E-07
   20.3999996      -7.11582572E-07
   20.5200005      -8.09943060E-07
   20.6399994      -8.62273851E-07
   20.7600002      -8.49917399E-07
   20.8799992      -7.53622771E-07
   21.0000000      -5.54525172E-07
   21.1200008      -2.35248478E-07
   21.2399998       2.18919908E-07
   21.3600006       8.18842750E-07
   21.4799995       1.57040461E-06
   21.6000004       2.47351204E-06
   21.7199993       3.52129405E-06
   21.8400002       4.69956967E-06
   21.9599991       5.98663473E-06
   22.0799999       7.35341473E-06
   22.2000008       8.76400281E-06
   22.3199997       1.01765881E-05
   22.4400005       1.15447538E-05
   22.5599995       1.28191041E-05
   22.6800003       1.39491549E-05
   22.7999992       1.48854078E-05
   22.9200001       1.55815123E-05
   23.0400009       1.59964056E-05
   23.1599998       1.60963209E-05
   23.2800007       1.58565636E-05
   23.3999996       1.52629545E-05
   23.5200005       1.43128436E-05
   23.6399994       1.30156577E-05
   23.7600002       1.13929254E-05
   23.8799992       9.47776607E-06
   24.0000000       7.31387718E-06
   24.1200008       4.95404311E-06
   24.2399998       2.45824822E-06
   24.3600006      -1.08529221E-07
   24.4799995      -2.67872952E-06
   24.6000004      -5.18472325E-06
   24.7199993      -7.56130430E-06
   24.8400002      -9.74805062E-06
   24.9599991      -1.16914516E-05
   25.0799999      -1.33467074E-05
   25.2000008      -1.46791399E-05
   25.3199997      -1.56651549E-05
   25.4400005      -1.62927390E-05
   25.5599995      -1.65614692E-05
   25.6800003      -1.64820958E-05
   25.7999992      -1.60756863E-05
   25.9200001      -1.53724231E-05
   26.0400009      -1.44101095E-05
   26.1599998      -1.32324612E-05
   26.2800007      -1.18872713E-05
   26.3999996      -1.04245246E-05
   26.5200005      -8.89454350E-06
   26.6399994      -7.34624655E-06
   26.7600002      -5.82555685E-06
   26.8799992      -4.37404105E-06
   27.0000000      -3.02779631E-06
   27.1200008      -1.81661687E-06
   27.2399998      -7.63449862E-07
   27.3600006       1.15860843E-07
   27.4799995       8.12558540E-07
   27.6000004       1.32470814E-06
   27.7199993       1.65671270E-06
   27.8400002       1.81865107E-06
   27.9599991       1.82547501E-06
   28.0799999       1.69611178E-06
   28.2000008       1.45250806E-06
   28.3199997       1.11865950E-06
   28.4400005       7.19655702E-07
   28.5599995       2.80770934E-07
   28.6800003      -1.73376264E-07
   28.7999992      -6.19578202E-07
   28.9200001      -1.03669663E-06
   29.0400009      -1.40621808E-06
   29.1599998      -1.71270403E-06
   29.2800007      -1.94413451E-06
   29.3999996      -2.09214841E-06
   29.5200005      -2.15217779E-06
   29.6399994      -2.12348209E-06
   29.7600002      -2.00907471E-06
   29.8799992      -1.81554651E-06
   30.0000000      -1.55278042E-06
   30.1200008      -1.23355824E-06
   30.2399998      -8.73061310E-07
   30.3600006      -4.88270928E-07
   30.4799995      -9.72782246E-08
   30.6000004       2.81476247E-07
   30.7199993       6.30011073E-07
   30.8400002       9.31627653E-07
   30.9599991       1.17171282E-06
   31.0799999       1.33847925E-06
   31.2000008       1.42359954E-06
   31.3199997       1.42269585E-06
   31.4400005       1.33564595E-06
   31.5599995       1.16667934E-06
   31.6800003       9.24246820E-07
   31.7999992       6.20659364E-07
   31.9200001       2.71507275E-07
   32.0400009      -1.05114395E-07
   32.1599998      -4.89534784E-07
   32.2799988      -8.61540912E-07
   32.4000015      -1.20145694E-06
   32.5200005      -1.49120694E-06
   32.6399994      -1.71529700E-06
   32.7599983      -1.86166085E-06
   32.8800011      -1.92231619E-06
   33.0000000      -1.89379546E-06
   33.1199989      -1.77732613E-06
   33.2400017      -1.57875002E-06
   33.3600006      -1.30819058E-06
   33.4799995      -9.79487254E-07
   33.5999985      -6.09431140E-07
   33.7200012      -2.16848420E-07
   33.8400002       1.78419512E-07
   33.9599991       5.56579664E-07
   34.0800018       8.98938708E-07
   34.2000008       1.18888545E-06
   34.3199997       1.41275302E-06
   34.4399986       1.56051806E-06
   34.5600014       1.62629908E-06
   34.6800003       1.60863260E-06
   34.7999992       1.51051279E-06
   34.9199982       1.33919400E-06
   35.0400009       1.10576832E-06
   35.1599998       8.24542099E-07
   35.2799988       5.12242934E-07
   35.4000015       1.87102501E-07
   35.5200005      -1.32136606E-07
   35.6399994      -4.27235392E-07
   35.7599983      -6.81438564E-07
   35.8800011      -8.80365690E-07
   36.0000000      -1.01276385E-06
   36.1199989      -1.07107962E-06
   36.2400017      -1.05181846E-06
   36.3600006      -9.55673045E-07
   36.4799995      -7.87413569E-07
   36.5999985      -5.55550571E-07
   36.7200012      -2.71792572E-07
   36.8400002       4.96665642E-08
   36.9599991       3.92984475E-07
   37.0800018       7.41578845E-07
   37.2000008       1.07905123E-06
   37.3199997       1.39007034E-06
   37.4399986       1.66116183E-06
   37.5600014       1.88136005E-06
   37.6800003       2.04268622E-06
   37.7999992       2.14042939E-06
   37.9199982       2.17322099E-06
   38.0400009       2.14290958E-06
   38.1599998       2.05424703E-06
   38.2799988       1.91442177E-06
   38.4000015       1.73247179E-06
   38.5200005       1.51862503E-06
   38.6399994       1.28361103E-06
   38.7599983       1.03799562E-06
   38.8800011       7.91576213E-07
   39.0000000       5.52879840E-07
   39.1199989       3.28790094E-07
   39.2400017       1.24321176E-07
   39.3600006      -5.74536685E-08
   39.4799995      -2.15323368E-07
   39.5999985      -3.49725582E-07
   39.7200012      -4.62422065E-07
   39.8400002      -5.56094847E-07
   39.9599991      -6.33898708E-07
   40.0800018      -6.99008581E-07
   40.2000008      -7.54198027E-07
   40.3199997      -8.01483566E-07
   40.4399986      -8.41861379E-07
   40.5600014      -8.75157184E-07
   40.6800003      -9.00000146E-07
   40.7999992      -9.13923543E-07
   40.9199982      -9.13582198E-07
   41.0400009      -8.95073413E-07
   41.1599998      -8.54333962E-07
   41.2799988      -7.87583360E-07
   41.4000015      -6.91779405E-07
   41.5200005      -5.65047458E-07
   41.6399994      -4.07048702E-07
   41.7599983      -2.19254559E-07
   41.8800011      -5.09979614E-09
   42.0000000       2.30003110E-07
   42.1199989       4.78796665E-07
   42.2400017       7.32455817E-07
   42.3600006       9.80995537E-07
   42.4799995       1.21378412E-06
   42.5999985       1.42012982E-06
   42.7200012       1.58989815E-06
   42.8400002       1.71411932E-06
   42.9599991       1.78554023E-06
   43.0800018       1.79908170E-06
   43.2000008       1.75216815E-06
   43.3199997       1.64490416E-06
   43.4399986       1.48008701E-06
   43.5600014       1.26305474E-06
   43.6800003       1.00138277E-06
   43.7999992       7.04451907E-07
   43.9199982       3.82921968E-07
   44.0400009       4.81493139E-08
   44.1599998      -2.88408813E-07
   44.2799988      -6.15762019E-07
   44.4000015      -9.23889672E-07
   44.5200005      -1.20414825E-06
   44.6399994      -1.44956186E-06
   44.7599983      -1.65498659E-06
   44.8800011      -1.81714563E-06
   45.0000000      -1.93454935E-06
   45.1199989      -2.00731210E-06
   45.2400017      -2.03689751E-06
   45.3600006      -2.02581145E-06
   45.4799995      -1.97728014E-06
   45.5999985      -1.89493301E-06
   45.7200012      -1.78251901E-06
   45.8400002      -1.64367270E-06
   45.9599991      -1.48174206E-06
   46.0800018      -1.29968396E-06
   46.2000008      -1.10002816E-06
   46.3199997      -8.84903329E-07
   46.4399986      -6.56115731E-07
   46.5600014      -4.15271273E-07
   46.6800003      -1.63926146E-07
   46.7999992       9.62457776E-08
   46.9199982       3.63281089E-07
   47.0400009       6.34763069E-07
   47.1599998       9.07676281E-07
   47.2799988       1.17829074E-06
   47.4000015       1.44208605E-06
   47.5200005       1.69372493E-06
   47.6399994       1.92708649E-06
   47.7599983       2.13536737E-06
   47.8800011       2.31125591E-06
   48.0000000       2.44718512E-06
   48.1199989       2.53565599E-06
   48.2400017       2.56963017E-06
   48.3600006       2.54297083E-06
   48.4799995       2.45091087E-06
   48.5999985       2.29052102E-06
   48.7200012       2.06113873E-06
   48.8400002       1.76472736E-06
   48.9599991       1.40612326E-06
   49.0800018       9.93142180E-07
   49.2000008       5.36516893E-07
   49.3199997       4.96527583E-08
   49.4399986      -4.51802094E-07
   49.5600014      -9.50560263E-07
   49.6800003      -1.42844556E-06
   49.7999992      -1.86725219E-06
   49.9199982      -2.24966129E-06
   50.0400009      -2.56015892E-06
   50.1599998      -2.78589346E-06
   50.2799988      -2.91741776E-06
   50.4000015      -2.94925690E-06
   50.5200005      -2.88026899E-06
   50.6399994      -2.71376302E-06
   50.7599983      -2.45736919E-06
   50.8800011      -2.12266468E-06
   51.0000000      -1.72457737E-06
   51.1199989      -1.28060685E-06
   51.2400017      -8.09910489E-07
   51.3600006      -3.32314897E-07
   51.4799995       1.32688058E-07
   51.5999985       5.66897654E-07
   51.7200012       9.54258894E-07
   51.8400002       1.28156819E-06
   51.9599991       1.53899589E-06
   52.0800018       1.72040495E-06
   52.2000008       1.82345775E-06
   52.3199997       1.84951898E-06
   52.4399986       1.80337042E-06
   52.5600014       1.69276507E-06
   52.6800003       1.52785344E-06
   52.7999992       1.32052048E-06
   52.9199982       1.08367055E-06
   53.0400009       8.30500937E-07
   53.1599998       5.73801628E-07
   53.2799988       3.25316819E-07
   53.4000015       9.51997592E-08
   53.5200005      -1.08411264E-07
   53.6399994      -2.79674794E-07
   53.7599983      -4.15171627E-07
   53.8800011      -5.13868088E-07
   54.0000000      -5.76921650E-07
   54.1199989      -6.07344816E-07
   54.2400017      -6.09553638E-07
   54.3600006      -5.88838304E-07
   54.4799995      -5.50801644E-07
   54.5999985      -5.00816782E-07
   54.7200012      -4.43553859E-07
   54.8400002      -3.82622773E-07
   54.9599991      -3.20367548E-07
   55.0800018      -2.57832710E-07
   55.2000008      -1.94904644E-07
   55.3199997      -1.30610971E-07
   55.4399986      -6.35415560E-08
   55.5600014       7.65856978E-09
   55.6800003       8.37860554E-08
   55.7999992       1.64629725E-07
   55.9199982       2.48635757E-07
   56.0400009       3.32737869E-07
   56.1599998       4.12385134E-07
   56.2799988       4.81781456E-07
   56.4000015       5.34324556E-07
   56.5200005       5.63212780E-07
   56.6399994       5.62164246E-07
   56.7599983       5.26179747E-07
   56.8800011       4.52270825E-07
   57.0000000       3.40072489E-07
   57.1199989       1.92267379E-07
   57.2400017       1.47617563E-08
   57.3600006      -1.83425556E-07
   57.4799995      -3.90574684E-07
   57.5999985      -5.92962238E-07
   57.7200012      -7.75802562E-07
   57.8400002      -9.24364201E-07
   57.9599991      -1.02517390E-06
   58.0800018      -1.06720540E-06
   58.2000008      -1.04294679E-06
   58.3199997      -9.49246669E-07
   58.4399986      -7.87848080E-07
   58.5600014      -5.65551147E-07
   58.6800003      -2.93969038E-07
   58.7999992       1.11210525E-08
   58.9199982       3.30793114E-07
   59.0400009       6.44282068E-07
   59.1599998       9.30488511E-07
   59.2799988       1.16955550E-06
   59.4000015       1.34439153E-06
   59.5200005       1.44200772E-06
   59.6399994       1.45455908E-06
   59.7599983       1.37999814E-06
   59.8800011       1.22228653E-06
   60.0000000       9.91143338E-07
   60.1199989       7.01350928E-07
   60.2400017       3.71675952E-07
   60.3600006       2.34923618E-08
   60.4799995      -3.20780458E-07
   60.5999985      -6.39299913E-07
   60.7200012      -9.12354551E-07
   60.8400002      -1.12373118E-06
   60.9599991      -1.26179282E-06
   61.0800018      -1.32019034E-06
   61.2000008      -1.29816374E-06
   61.3199997      -1.20041898E-06
   61.4399986      -1.03660238E-06
   61.5600014      -8.20423281E-07
   61.6800003      -5.68502514E-07
   61.7999992      -2.99038732E-07
   61.9199982      -3.04019245E-08
   62.0400009       2.20241120E-07
   62.1599998       4.38164932E-07
   62.2799988       6.12099029E-07
   62.4000015       7.34945615E-07
   62.5200005       8.04154411E-07
   62.6399994       8.21735057E-07
   62.7599983       7.93911681E-07
   62.8800011       7.30453053E-07
   63.0000000       6.43733983E-07
   63.1199989       5.47601871E-07
   63.2400017       4.56136547E-07
   63.3600006       3.82398838E-07
   63.4799995       3.37262577E-07
   63.5999985       3.28420356E-07
   63.7200012       3.59639898E-07
   63.8400002       4.30331738E-07
   63.9599991       5.35466256E-07
   64.0800018       6.65854316E-07
   64.1999969       8.08780158E-07
   64.3199997       9.48946024E-07
   64.4400024       1.06966752E-06
   64.5599976       1.15423427E-06
   64.6800003       1.18733328E-06
   64.8000031       1.15642911E-06
   64.9199982       1.05298250E-06
   65.0400009       8.73410158E-07
   65.1600037       6.19691946E-07
   65.2799988       2.99566153E-07
   65.4000015      -7.37207841E-08
   65.5199966      -4.82105747E-07
   65.6399994      -9.03800640E-07
   65.7600021      -1.31470972E-06
   65.8799973      -1.69006807E-06
   66.0000000      -2.00617478E-06
   66.1200027      -2.24208907E-06
   66.2399979      -2.38115194E-06
   66.3600006      -2.41221960E-06
   66.4800034      -2.33050696E-06
   66.5999985      -2.13798580E-06
   66.7200012      -1.84330713E-06
   66.8399963      -1.46125922E-06
   66.9599991      -1.01181388E-06
   67.0800018      -5.18834838E-07
   67.1999969      -8.55078408E-09
   67.3199997       4.92094614E-07
   67.4400024       9.57098450E-07
   67.5599976       1.36294864E-06
   67.6800003       1.68997133E-06
   67.8000031       1.92339326E-06
   67.9199982       2.05406673E-06
   68.0400009       2.07882158E-06
   68.1600037       2.00044042E-06
   68.2799988       1.82727058E-06
   68.4000015       1.57251350E-06
   68.5199966       1.25324254E-06
   68.6399994       8.89219507E-07
   68.7600021       5.01587067E-07
   68.8799973       1.11518411E-07
   69.0000000      -2.61091230E-07
   69.1200027      -5.98811653E-07
   69.2399979      -8.87669671E-07
   69.3600006      -1.11788518E-06
   69.4800034      -1.28430361E-06
   69.5999985      -1.38649648E-06
   69.7200012      -1.42852105E-06
   69.8399963      -1.41835449E-06
   69.9599991      -1.36703761E-06
   70.0800018      -1.28758666E-06
   70.1999969      -1.19375250E-06
   70.3199997      -1.09872065E-06
   70.4400024      -1.01385433E-06
   70.5599976      -9.47590365E-07
   70.6800003      -9.04587807E-07
   70.8000031      -8.85217787E-07
   70.9199982      -8.85456245E-07
   71.0400009      -8.97213397E-07
   71.1600037      -9.09089749E-07
   71.2799988      -9.07512913E-07
   71.4000015      -8.78164599E-07
   71.5199966      -8.07574224E-07
   71.6399994      -6.84730594E-07
   71.7600021      -5.02549767E-07
   71.8799973      -2.59043389E-07
   72.0000000       4.19490256E-08
   72.1200027       3.90562690E-07
   72.2399979       7.71294651E-07
   72.3600006       1.16396825E-06
   72.4800034       1.54520785E-06
   72.5999985       1.89030106E-06
   72.7200012       2.17528100E-06