  -30.0000000       0.00000000    
  -29.8799992       0.00000000    
  -29.7600002       0.00000000    
  -29.6399994       0.00000000    
  -29.5200005       0.00000000    
  -29.3999996      -0.00000000    
  -29.2800007       1.87773994E-43
  -29.1599998       1.29760238E-42
  -29.0400009       2.61202034E-42
  -28.9200001      -1.89805877E-41
  -28.7999992      -1.50674617E-40
  -28.6800003      -5.09279506E-40
  -28.5599995      -8.32232559E-40
  -28.4400005       5.70849758E-40
  -28.3199997       7.79873883E-39
  -28.2000008       2.54597854E-38
  -28.0799999       4.98102862E-38
  -27.9599991       5.28884905E-38
  -27.8400002      -2.79419839E-38
  -27.7199993      -2.67732959E-37
  -27.6000004      -6.73404448E-37
  -27.4799995      -1.05912524E-36
  -27.3600006      -9.66231837E-37
  -27.2399998       2.26936856E-37
  -27.1200008       2.90648530E-36
  -27.0000000       6.63475443E-36
  -26.8799992       9.74086122E-36
  -26.7600002       9.57594404E-36
  -26.6399994       3.65210504E-36
  -26.5200005      -8.76468648E-36
  -26.3999996      -2.56663940E-35
  -26.2800007      -4.29340386E-35
  -26.1599998      -5.64883925E-35
  -26.0400009      -6.41098892E-35
  -25.9200001      -6.40705492E-35
  -25.7999992      -4.90692094E-35
  -25.6800003       1.83957135E-36
  -25.5599995       1.25331116E-34
  -25.4400005       3.59386895E-34
  -25.3199997       7.06263271E-34
  -25.2000008       1.07978670E-33
  -25.0799999       1.26226769E-33
  -24.9599991       9.11393923E-34
  -24.8400002      -3.42349574E-34
  -24.7199993      -2.69179298E-33
  -24.6000004      -5.87840370E-33
  -24.4799995      -8.95026248E-33
  -24.3600006      -1.02134524E-32
  -24.2399998      -7.54587513E-33
  -24.1200008       8.35904961E-34
  -24.0000000       1.52453712E-32
  -23.8799992       3.33657371E-32
  -23.7600002       4.96180867E-32
  -23.6399994       5.56797820E-32
  -23.5200005       4.25606038E-32
  -23.3999996       4.11829266E-33
  -23.2800007      -5.88277206E-32
  -23.1599998      -1.35279123E-31
  -23.0400009      -2.03480000E-31
  -22.9200001      -2.34297065E-31
  -22.7999992      -1.98755477E-31
  -22.6800003      -7.83770086E-32
  -22.5599995       1.24479045E-31
  -22.4400005       3.79812240E-31
  -22.3199997       6.29879620E-31
  -22.2000008       7.97448691E-31
  -22.0799999       8.01827642E-31
  -21.9599991       5.79861771E-31
  -21.8400002       1.07550398E-31
  -21.7199993      -5.82507386E-31
  -21.6000004      -1.39207806E-30
  -21.4799995      -2.15981796E-30
  -21.3600006      -2.67739226E-30
  -21.2399998      -2.72023198E-30
  -21.1200008      -2.09268764E-30
  -21.0000000      -6.84885091E-31
  -20.8799992       1.46572673E-30
  -20.7600002       4.12113837E-30
  -20.6399994       6.81682603E-30
  -20.5200005       8.88493399E-30
  -20.3999996       9.54468236E-30
  -20.2800007       8.06524165E-30
  -20.1599998       3.98488522E-30
  -20.0400009      -2.65556963E-30
  -19.9200001      -1.11292653E-29
  -19.7999992      -1.99634570E-29
  -19.6800003      -2.70657616E-29
  -19.5599995      -3.00642238E-29
  -19.4400005      -2.68349419E-29
  -19.3199997      -1.61292661E-29
  -19.2000008       1.84000789E-30
  -19.0799999       2.50205173E-29
  -18.9599991       4.95040913E-29
  -18.8400002       6.99691613E-29
  -18.7199993       8.05835570E-29
  -18.6000004       7.62539221E-29
  -18.4799995       5.39968946E-29
  -18.3600006       1.41293217E-29
  -18.2399998      -3.90433546E-29
  -18.1200008      -9.73032590E-29
  -18.0000000      -1.49489310E-28
  -17.8799992      -1.83298842E-28
  -17.7600002      -1.87659123E-28
  -17.6399994      -1.55246095E-28
  -17.5200005      -8.46560442E-29
  -17.3999996       1.82240173E-29
  -17.2800007       1.39969643E-28
  -17.1599998       2.60650472E-28
  -17.0400009       3.56152017E-28
  -16.9200001       4.01719375E-28
  -16.7999992       3.76589865E-28
  -16.6800003       2.69428860E-28
  -16.5599995       8.39106732E-29
  -16.4400005      -1.56842992E-28
  -16.3199997      -4.08972090E-28
  -16.2000008      -6.12137911E-28
  -16.0799999      -7.01236004E-28
  -15.9600000      -6.25591879E-28
  -15.8400002      -3.72385103E-28
  -15.7200003       1.29121521E-29
  -15.6000004       4.19376590E-28
  -15.4799995       6.87185189E-28
  -15.3599997       6.53673768E-28
  -15.2399998       2.24708117E-28
  -15.1199999      -5.46586574E-28
  -15.0000000      -1.40508328E-27
  -14.8800001      -1.90113803E-27
  -14.7600002      -1.49234794E-27
  -14.6400003       2.52012555E-28
  -14.5200005       3.37602731E-27
  -14.3999996       7.27322205E-27
  -14.2799997       1.05576706E-26
  -14.1599998       1.12076535E-26
  -14.0400000       7.08216672E-27
  -13.9200001      -3.19101401E-27
  -13.8000002      -1.91172228E-26
  -13.6800003      -3.73742483E-26
  -13.5600004      -5.14853583E-26
  -13.4399996      -5.26493533E-26
  -13.3199997      -3.20740336E-26
  -13.1999998       1.52679314E-26
  -13.0799999       8.61872632E-26
  -12.9600000       1.65580166E-25
  -12.8400002       2.25477992E-25
  -12.7200003       2.28875173E-25
  -12.6000004       1.39585621E-25
  -12.4799995      -6.23677068E-26
  -12.3599997      -3.62876929E-25
  -12.2399998      -6.99208047E-25
  -12.1199999      -9.56619967E-25
  -12.0000000      -9.83958040E-25
  -11.8800001      -6.32897878E-25
  -11.7600002       1.81261994E-25
  -11.6400003       1.40907025E-24
  -11.5200005       2.80895284E-24
  -11.3999996       3.93162793E-24
  -11.2799997       4.17680866E-24
  -11.1599998       2.94060071E-24
  -11.0400000      -1.52839027E-25
  -10.9200001      -4.97775018E-24
  -10.8000002      -1.06728778E-23
  -10.6800003      -1.55582161E-23
  -10.5600004      -1.73165887E-23
  -10.4399996      -1.35162670E-23
  -10.3199997      -2.46390094E-24
  -10.1999998       1.57523406E-23
  -10.0799999       3.83155358E-23
  -9.96000004       5.92325046E-23
  -9.84000015       6.98206461E-23
  -9.72000027       6.04510675E-23
  -9.60000038       2.35797325E-23
  -9.47999954      -4.23557595E-23
  -9.35999966      -1.29135053E-22
  -9.23999977      -2.16481835E-22
  -9.11999989      -2.72950543E-22
  -9.00000000      -2.61319528E-22
  -8.88000011      -1.48920733E-22
  -8.76000023       7.82069949E-23
  -8.64000034       4.00395831E-22
  -8.52000046       7.53565930E-22
  -8.39999962       1.02855557E-21
  -8.27999973       1.08604331E-21
  -8.15999985       7.89867366E-22
  -8.03999996       5.65437258E-23
  -7.92000008      -1.08799494E-21
  -7.80000019      -2.46049013E-21
  -7.67999983      -3.70241115E-21
  -7.55999994      -4.31345124E-21
  -7.44000006      -3.75108879E-21
  -7.32000017      -1.59554749E-21
  -7.19999981       2.24316660E-21
  -7.07999992       7.32546223E-21
  -6.96000004       1.25610656E-20
  -6.84000015       1.62470809E-20
  -6.71999979       1.63320737E-20
  -6.59999990       1.09303218E-20
  -6.48000002      -9.61213356E-22
  -6.36000013      -1.86815462E-20
  -6.23999977      -3.92876217E-20
  -6.11999989      -5.73848537E-20
  -6.00000000      -6.56833041E-20
  -5.88000011      -5.64535775E-20
  -5.76000023      -2.38470968E-20
  -5.63999987       3.32532616E-20
  -5.51999998       1.08519828E-19
  -5.40000010       1.86549261E-19
  -5.28000021       2.43365971E-19
  -5.15999985       2.49930890E-19
  -5.03999996       1.78983868E-19
  -4.92000008       1.46430372E-20
  -4.80000019      -2.36964265E-19
  -4.67999983      -5.38908841E-19
  -4.55999994      -8.20155678E-19
  -4.44000006      -9.81401097E-19
  -4.32000017      -9.12569433E-19
  -4.19999981      -5.22045213E-19
  -4.07999992       2.25883690E-19
  -3.96000004       1.27307367E-18
  -3.83999991       2.44050293E-18
  -3.72000003       3.42559170E-18
  -3.59999990       3.83605795E-18
  -3.48000002       3.26705385E-18
  -3.35999990       1.41834426E-18
  -3.24000001      -1.76523217E-18
  -3.11999989      -5.96143567E-18
  -3.00000000      -1.03897442E-17
  -2.88000011      -1.38296459E-17
  -2.75999999      -1.47781474E-17
  -2.64000010      -1.17636399E-17
  -2.51999998      -3.79513236E-18
  -2.40000010       9.12305852E-18
  -2.27999997       2.55314607E-17
  -2.16000009       4.22685753E-17
  -2.03999996       5.46041146E-17
  -1.91999996       5.68847740E-17
  -1.79999995       4.37371219E-17
  -1.67999995       1.17335653E-17
  -1.55999994      -3.87447031E-17
  -1.44000006      -1.01886132E-16
  -1.32000005      -1.65630252E-16
  -1.20000005      -2.12234441E-16
  -1.08000004      -2.20676289E-16
 -0.959999979      -1.71029888E-16
 -0.839999974      -5.04722151E-17
 -0.720000029       1.40017392E-16
 -0.600000024       3.79789721E-16
 -0.479999989       6.25439546E-16
 -0.360000014       8.12528954E-16
 -0.239999995       8.63717908E-16
 -0.119999997       7.03864262E-16
  -1.11022302E-15   2.81047676E-16
  0.119999997      -4.09529895E-16
  0.239999995      -1.30382913E-15
  0.360000014      -2.25603435E-15
  0.479999989      -3.04141346E-15
  0.600000024      -3.38080728E-15
  0.720000029      -2.98941157E-15
  0.839999974      -1.64741428E-15
  0.959999979       7.16461760E-16
   1.08000004       3.94429235E-15
   1.20000005       7.59250688E-15
   1.32000005       1.09234868E-14
   1.44000006       1.29665760E-14
   1.55999994       1.26612588E-14
   1.67999995       9.08027620E-15
   1.79999995       1.71020664E-15
   1.91999996      -9.25541297E-15
   2.03999996      -2.26756852E-14
   2.16000009      -3.63523332E-14
   2.27999997      -4.71265923E-14
   2.40000010      -5.12399503E-14
   2.51999998      -4.49756368E-14
   2.64000010      -2.55390717E-14
   2.75999999       7.93507495E-15
   2.88000011       5.34318548E-14
   3.00000000       1.05398031E-13
   3.11999989       1.54634226E-13
   3.24000001       1.88963835E-13
   3.35999990       1.94813959E-13
   3.48000002       1.59689902E-13
   3.59999990       7.53224455E-14
   3.72000003      -5.89575047E-14
   3.83999991      -2.33265637E-13
   3.96000004      -4.25415671E-13
   4.07999992      -6.01168800E-13
   4.19999981      -7.17121783E-13
   4.32000017      -7.26534826E-13
   4.44000006      -5.87886456E-13
   4.55999994      -2.75307202E-13
   4.67999983       2.10624514E-13
   4.80000019       8.33807795E-13
   4.92000008       1.51767683E-12
   5.03999996       2.14674155E-12
   5.15999985       2.57640979E-12
   5.28000021       2.65181258E-12
   5.40000010       2.23479677E-12
   5.51999998       1.23638860E-12
   5.63999987      -3.49862473E-13
   5.76000023      -2.41982389E-12
   5.88000011      -4.74301154E-12
   6.00000000      -6.96586972E-12
   6.11999989      -8.63925511E-12
   6.23999977      -9.27222882E-12
   6.36000013      -8.40997758E-12
   6.48000002      -5.72855261E-12
   6.59999990      -1.13395382E-12
   6.71999979       5.15125009E-12
   6.84000015       1.25330180E-11
   6.96000004       2.00415171E-11
   7.07999992       2.63923952E-11
   7.19999981       3.01210619E-11
   7.32000017       2.97865239E-11
   7.44000006       2.42281559E-11
   7.55999994       1.28452604E-11
   7.67999983      -4.14262851E-12
   7.80000019      -2.55043538E-11
   7.92000008      -4.89252354E-11
   8.03999996      -7.10980302E-11
   8.15999985      -8.80035281E-11
   8.27999973      -9.53827850E-11
   8.39999962      -8.93715865E-11
   8.52000046      -6.72340655E-11
   8.64000034      -2.81007509E-11
   8.76000023       2.64069478E-11
   8.88000011       9.17938017E-11
   9.00000000       1.60668728E-10
   9.11999989       2.23173827E-10
   9.23999977       2.67904615E-10
   9.35999966       2.83293944E-10
   9.47999954       2.59354038E-10
   9.60000038       1.89592980E-10
   9.72000027       7.28532859E-11
   9.84000015      -8.52225443E-11
   9.96000004      -2.71404010E-10
   10.0799999      -4.65031375E-10
   10.1999998      -6.39308773E-10
   10.3199997      -7.63792973E-10
   10.4399996      -8.07978351E-10
   10.5600004      -7.45699336E-10
   10.6800003      -5.59897961E-10
   10.8000002      -2.47157433E-10
   10.9200001       1.78686996E-10
   11.0400000       6.84559520E-10
   11.1599998       1.21839649E-09
   11.2799997       1.71207470E-09
   11.3999996       2.08717665E-09
   11.5200005       2.26340080E-09
   11.6400003       2.16903961E-09
   11.7600002       1.75255677E-09
   11.8800001       9.93967020E-10
   12.0000000      -8.55092178E-11
   12.1199999      -1.41711320E-09
   12.2399998      -2.88302293E-09
   12.3599997      -4.32080194E-09
   12.4799995      -5.53446311E-09
   12.6000004      -6.31210373E-09
   12.7200003      -6.44924114E-09
   12.8400002      -5.77614712E-09
   12.9600000      -4.18666035E-09
   13.0799999      -1.66531666E-09
   13.1999998       1.69075942E-09
   13.3199997       5.65882097E-09
   13.4399996       9.88959226E-09
   13.5600004       1.39210066E-08
   13.6800003       1.72079204E-08
   13.8000002       1.91675831E-08
   13.9200001       1.92389518E-08
   14.0400000       1.69519279E-08
   14.1599998       1.20010215E-08
   14.2799997       4.31621050E-09
   14.3999996      -5.87702687E-09
   14.5200005      -1.80170332E-08
   14.6400003      -3.11926769E-08
   14.7600002      -4.41641212E-08
   14.8800001      -5.54221451E-08
   15.0000000      -6.32875157E-08
   15.1199999      -6.60481305E-08
   15.2399998      -6.21277323E-08
   15.3599997      -5.02757480E-08
   15.4799995      -2.97639158E-08
   15.6000004      -5.72508652E-10
   15.7200003       3.64534749E-08
   15.8400002       7.94981077E-08
   15.9600000       1.25737401E-07
   16.0799999       1.71387356E-07
   16.2000008       2.11848786E-07
   16.3199997       2.41953956E-07
   16.4400005       2.56312660E-07
   16.5599995       2.49746876E-07
   16.6800003       2.17794181E-07
   16.7999992       1.57252089E-07
   16.9200001       6.67280915E-08
   17.0400009      -5.28447544E-08
   17.1599998      -1.97770134E-07
   17.2800007      -3.61271589E-07
   17.3999996      -5.33336276E-07
   17.5200005      -7.00752764E-07
   17.6399994      -8.47365584E-07
   17.7600002      -9.54559141E-07
   17.8799992      -1.00196633E-06
   18.0000000      -9.68384597E-07
   18.1200008      -8.32865908E-07
   18.2399998      -5.75930756E-07
   18.3600006      -1.80848104E-07
   18.4799995       3.65090727E-07
   18.6000004       1.06937819E-06
   18.7199993       1.93325309E-06
   18.8400002       2.95089444E-06
   18.9599991       4.10890561E-06
   19.0799999       5.38614859E-06
   19.2000008       6.75395040E-06
   19.3199997       8.17671207E-06
   19.4400005       9.61289697E-06
   19.5599995       1.10163828E-05
   19.6800003       1.23381169E-05
   19.7999992       1.35280134E-05
   19.9200001       1.45370013E-05
   20.0400009       1.53191231E-05
   20.1599998       1.58335915E-05
   20.2800007       1.60466825E-05
   20.3999996       1.59333867E-05
   20.5200005       1.54787231E-05
   20.6399994       1.46786260E-05
   20.7600002       1.35403907E-05
   20.8799992       1.20826253E-05
   21.0000000       1.03347174E-05
   21.1200008       8.33583817E-06
   21.2399998       6.13353996E-06
   21.3600006       3.78200639E-06
   21.4799995       1.34005495E-06
   21.6000004      -1.13102101E-06
   21.7199993      -3.56965779E-06
   21.8400002      -5.91617754E-06
   21.9599991      -8.11479367E-06
   22.0799999      -1.01153910E-05
   22.2000008      -1.18749986E-05
   22.3199997      -1.33589310E-05
   22.4400005      -1.45415470E-05
   22.5599995      -1.54066329E-05
   22.6800003      -1.59474384E-05
   22.7999992      -1.61663629E-05
   22.9200001      -1.60743584E-05
   23.0400009      -1.56901206E-05
   23.1599998      -1.50390733E-05
   23.2800007      -1.41522532E-05
   23.3999996      -1.30651115E-05
   23.5200005      -1.18163089E-05
   23.6399994      -1.04465144E-05
   23.7600002      -8.99725001E-06
   23.8799992      -7.50980371E-06
   24.0000000      -6.02421323E-06
   24.1200008      -4.57833949E-06
   24.2399998      -3.20702111E-06
   24.3600006      -1.94132667E-06
   24.4799995      -8.07896527E-07
   24.6000004       1.71607937E-07
   24.7199993       9.80949380E-07
   24.8400002       1.60963339E-06
   24.9599991       2.05309220E-06
   25.0799999       2.31271474E-06
   25.2000008       2.39571273E-06
   25.3199997       2.31481226E-06
   25.4400005       2.08776419E-06
   25.5599995       1.73668138E-06
   25.6800003       1.28720774E-06
   25.7999992       7.67547590E-07
   25.9200001       2.07379216E-07
   26.0400009      -3.63305730E-07
   26.1599998      -9.15392661E-07
   26.2800007      -1.42181409E-06
   26.3999996      -1.85864735E-06
   26.5200005      -2.20608808E-06
   26.6399994      -2.44925127E-06
   26.7600002      -2.57875968E-06
   26.8799992      -2.59108401E-06
   27.0000000      -2.48861829E-06
   27.1200008      -2.27947680E-06
   27.2399998      -1.97701934E-06
   27.3600006      -1.59912531E-06
   27.4799995      -1.16724368E-06
   27.6000004      -7.05265961E-07
   27.7199993      -2.38276087E-07
   27.8400002       2.08762728E-07
   27.9599991       6.12316910E-07
   28.0799999       9.51518473E-07
   28.2000008       1.20926313E-06
   28.3199997       1.37311042E-06
   28.4400005       1.43593309E-06
   28.5599995       1.39628003E-06
   28.6800003       1.25842757E-06
   28.7999992       1.03211266E-06
   28.9200001       7.31960483E-07
   29.0400009       3.76634688E-07
   29.1599998      -1.22418982E-08
   29.2800007      -4.11336885E-07
   29.3999996      -7.96954851E-07
   29.5200005      -1.14640181E-06
   29.6399994      -1.43928662E-06
   29.7600002      -1.65867948E-06
   29.8799992      -1.79205858E-06
   30.0000000      -1.83198597E-06
   30.1200008      -1.77647371E-06
   30.2399998      -1.62901847E-06
   30.3600006      -1.39830706E-06
   30.4799995      -1.09761459E-06
   30.6000004      -7.43938244E-07
   30.7199993      -3.56927529E-07
   30.8400002       4.23182023E-08
   30.9599991       4.32504891E-07
   31.0799999       7.93369793E-07
   31.2000008       1.10680298E-06
   31.3199997       1.35779680E-06
   31.4400005       1.53517135E-06
   31.5599995       1.63204243E-06
   31.6800003       1.64601420E-06
   31.7999992       1.57910381E-06
   31.9200001       1.43741931E-06
   32.0400009       1.23062773E-06
   32.1599998       9.71263489E-07
   32.2799988       6.73932448E-07
   32.4000015       3.54469250E-07
   32.5200005       2.91027007E-08
   32.6399994      -2.86321466E-07
   32.7599983      -5.77023627E-07
   32.8800011      -8.29851274E-07
   33.0000000      -1.03370439E-06
   33.1199989      -1.17982404E-06
   33.2400017      -1.26195141E-06
   33.3600006      -1.27637747E-06
   33.4799995      -1.22190124E-06
   33.5999985      -1.09972439E-06
   33.7200012      -9.13303779E-07
   33.8400002      -6.68180633E-07
   33.9599991      -3.71797739E-07
   34.0800018      -3.33114265E-08
   34.2000008       3.36605268E-07
   34.3199997       7.25976633E-07
   34.4399986       1.12176849E-06
   34.5600014       1.51017878E-06
   34.6800003       1.87698595E-06
   34.7999992       2.20796755E-06
   34.9199982       2.48938727E-06
   35.0400009       2.70854935E-06
   35.1599998       2.85439341E-06
   35.2799988       2.91811057E-06
   35.4000015       2.89373406E-06
   35.5200005       2.77866570E-06
   35.6399994       2.57408374E-06
   35.7599983       2.28518775E-06
   35.8800011       1.92123798E-06
   36.0000000       1.49535754E-06
   36.1199989       1.02408535E-06
   36.2400017       5.26681106E-07
   36.3600006       2.42098768E-08
   36.4799995      -4.61548780E-07
   36.5999985      -9.09303765E-07
   36.7200012      -1.29948739E-06
   36.8400002      -1.61543562E-06
   36.9599991      -1.84442297E-06
   37.0800018      -1.97846953E-06
   37.2000008      -2.01484977E-06
   37.3199997      -1.95625444E-06
   37.4399986      -1.81058181E-06
   37.5600014      -1.59036335E-06
   37.6800003      -1.31186607E-06
   37.7999992      -9.93928666E-07
   37.9199982      -6.56626582E-07
   38.0400009      -3.19866331E-07
   38.1599998      -2.02293093E-09
   38.2799988       2.81272406E-07
   38.4000015       5.18097124E-07
   38.5200005       7.00880037E-07
   38.6399994       8.26675716E-07
   38.7599983       8.97055713E-07
   38.8800011       9.17637010E-07
   39.0000000       8.97298150E-07
   39.1199989       8.47161573E-07
   39.2400017       7.79437357E-07
   39.3600006       7.06236506E-07
   39.4799995       6.38458005E-07
   39.5999985       5.84846816E-07
   39.7200012       5.51298115E-07
   39.8400002       5.40460178E-07
   39.9599991       5.51657195E-07
   40.0800018       5.81124084E-07
   40.2000008       6.22516325E-07
   40.3199997       6.67634538E-07
   40.4399986       7.07287256E-07
   40.5600014       7.32205592E-07
   40.6800003       7.33924708E-07
   40.7999992       7.05554385E-07
   40.9199982       6.42375312E-07
   41.0400009       5.42218970E-07
   41.1599998       4.05610962E-07
   41.2799988       2.35680062E-07
   41.4000015       3.78576033E-08
   41.5200005      -1.80591499E-07
   41.6399994      -4.11152143E-07
   41.7599983      -6.44697366E-07
   41.8800011      -8.72121063E-07
   42.0000000      -1.08491088E-06
   42.1199989      -1.27561680E-06
   42.2400017      -1.43818511E-06
   42.3600006      -1.56814372E-06
   42.4799995      -1.66263953E-06
   42.5999985      -1.72034299E-06
   42.7200012      -1.74124659E-06
   42.8400002      -1.72639284E-06
   42.9599991      -1.67756832E-06
   43.0800018      -1.59700107E-06
   43.2000008      -1.48709603E-06
   43.3199997      -1.35023026E-06
   43.4399986      -1.18862738E-06
   43.5600014      -1.00431714E-06
   43.6800003      -7.99174188E-07
   43.7999992      -5.75027855E-07
   43.9199982      -3.33822584E-07
   44.0400009      -7.78073712E-08
   44.1599998       1.90270910E-07
   44.2799988       4.66993583E-07
   44.4000015       7.48138348E-07
   44.5200005       1.02860815E-06
   44.6399994       1.30243313E-06
   44.7599983       1.56285546E-06
   44.8800011       1.80249742E-06
   45.0000000       2.01361149E-06
   45.1199989       2.18839796E-06
   45.2400017       2.31938293E-06
   45.3600006       2.39982796E-06
   45.4799995       2.42415103E-06
   45.5999985       2.38833013E-06
   45.7200012       2.29026205E-06
   45.8400002       2.13004409E-06
   45.9599991       1.91015260E-06
   46.0800018       1.63550112E-06
   46.2000008       1.31335787E-06
   46.3199997       9.53121287E-07
   46.4399986       5.65957009E-07
   46.5600014       1.64312425E-07
   46.6800003      -2.38664228E-07
   46.7999992      -6.29764941E-07
   46.9199982      -9.96380550E-07
   47.0400009      -1.32713092E-06
   47.1599998      -1.61242201E-06
   47.2799988      -1.84488670E-06
   47.4000015      -2.01967896E-06
   47.5200005      -2.13459884E-06
   47.6399994      -2.19003891E-06
   47.7599983      -2.18876312E-06
   47.8800011      -2.13553722E-06
   48.0000000      -2.03664467E-06
   48.1199989      -1.89933428E-06
   48.2400017      -1.73124897E-06
   48.3600006      -1.53988367E-06
   48.4799995      -1.33212336E-06
   48.5999985      -1.11389465E-06
   48.7200012      -8.89960404E-07
   48.8400002      -6.63865364E-07
   48.9599991      -4.38027740E-07
   49.0800018      -2.13956454E-07
   49.2000008       7.44004147E-09
   49.3199997       2.25495583E-07
   49.4399986       4.39424724E-07
   49.5600014       6.48003208E-07
   49.6800003       8.49328217E-07
   49.7999992       1.04068624E-06
   49.9199982       1.21854328E-06
   50.0400009       1.37865516E-06
   50.1599998       1.51628763E-06
   50.2799988       1.62651452E-06
   50.4000015       1.70456735E-06
   50.5200005       1.74619413E-06
   50.6399994       1.74799470E-06
   50.7599983       1.70769943E-06
   50.8800011       1.62437084E-06
   51.0000000       1.49851496E-06
   51.1199989       1.33209858E-06
   51.2400017       1.12848454E-06
   51.3600006       8.92296669E-07
   51.4799995       6.29237718E-07
   51.5999985       3.45881148E-07
   51.7200012       4.94584000E-08
   51.8400002      -2.52341607E-07
   51.9599991      -5.51551693E-07
   52.0800018      -8.40080588E-07
   52.2000008      -1.10984809E-06
   52.3199997      -1.35291145E-06
   52.4399986      -1.56159990E-06
   52.5600014      -1.72867021E-06
   52.6800003      -1.84750172E-06
   52.7999992      -1.91233607E-06
   52.9199982      -1.91856316E-06
   53.0400009      -1.86304487E-06
   53.1599998      -1.74445449E-06
   53.2799988      -1.56360397E-06
   53.4000015      -1.32372088E-06
   53.5200005      -1.03063439E-06
   53.6399994      -6.92832771E-07
   53.7599983      -3.21355571E-07
   53.8800011       7.04973573E-08
   54.0000000       4.67648334E-07
   54.1199989       8.53902463E-07
   54.2400017       1.21275389E-06
   54.3600006       1.52828727E-06
   54.4799995       1.78611094E-06
   54.5999985       1.97424674E-06
   54.7200012       2.08390520E-06
   54.8400002       2.11007864E-06
   54.9599991       2.05189940E-06
   55.0800018       1.91272920E-06
   55.2000008       1.69997122E-06
   55.3199997       1.42462022E-06
   55.4399986       1.10058522E-06
   55.5600014       7.43838200E-07
   55.6800003       3.71458214E-07
   55.7999992       6.38624820E-10
   55.9199982      -3.52270803E-07
   56.0400009      -6.72625845E-07
   56.1599998      -9.48201830E-07
   56.2799988      -1.16972592E-06
   56.4000015      -1.33120466E-06
   56.5200005      -1.43004559E-06
   56.6399994      -1.46697812E-06
   56.7599983      -1.44579610E-06
   56.8800011      -1.37294785E-06
   57.0000000      -1.25700979E-06
   57.1199989      -1.10807650E-06
   57.2400017      -9.37106620E-07
   57.3600006      -7.55259805E-07
   57.4799995      -5.73258376E-07
   57.5999985      -4.00804851E-07
   57.7200012      -2.46082323E-07
   57.8400002      -1.15359313E-07
   57.9599991      -1.27167379E-08
   58.0800018       6.00918355E-08
   58.2000008       1.03643060E-07
   58.3199997       1.20710524E-07
   58.4399986       1.16004855E-07
   58.5600014       9.58021289E-08
   58.6800003       6.74818423E-08
   58.7999992       3.90013106E-08
   58.9199982       1.83366602E-08
   59.0400009       1.29247830E-08
   59.1599998       2.91402760E-08
   59.2799988       7.18421731E-08
   59.4000015       1.44020120E-07
   59.5200005       2.46564980E-07
   59.6399994       3.78180289E-07
   59.7599983       5.35439938E-07
   59.8800011       7.12987173E-07
   60.0000000       9.03856289E-07
   60.1199989       1.09988991E-06
   60.2400017       1.29221473E-06
   60.3600006       1.47173705E-06
   60.4799995       1.62961555E-06
   60.5999985       1.75767889E-06
   60.7200012       1.84876069E-06
   60.8400002       1.89693833E-06
   60.9599991       1.89767570E-06
   61.0800018       1.84788360E-06
   61.2000008       1.74591730E-06
   61.3199997       1.59154411E-06
   61.4399986       1.38590667E-06
   61.5600014       1.13150656E-06
   61.6800003       8.32222440E-07
   61.7999992       4.93364098E-07
   61.9199982       1.21748442E-07
   62.0400009      -2.74230047E-07
   62.1599998      -6.84568249E-07
   62.2799988      -1.09770451E-06
   62.4000015      -1.50068809E-06
   62.5200005      -1.87949536E-06
   62.6399994      -2.21950995E-06
   62.7599983      -2.50615994E-06
   62.8800011      -2.72568536E-06
   63.0000000      -2.86599266E-06
   63.1199989      -2.91752599E-06
   63.2400017      -2.87408511E-06
   63.3600006      -2.73350406E-06
   63.4799995      -2.49811842E-06
   63.5999985      -2.17495904E-06
   63.7200012      -1.77563038E-06
   63.8400002      -1.31586012E-06
   63.9599991      -8.14739167E-07
   64.0800018      -2.93693603E-07
   64.1999969       2.24735160E-07
   64.3199997       7.18214039E-07
   64.4400024       1.16594242E-06
   64.5599976       1.54987231E-06
   64.6800003       1.85573288E-06
   64.8000031       2.07377798E-06
   64.9199982       2.19920548E-06
   65.0400009       2.23222446E-06
   65.1600037       2.17777324E-06
   65.2799988       2.04492540E-06
   65.4000015       1.84604119E-06
   65.5199966       1.59574358E-06
   65.6399994       1.30980970E-06
   65.7600021       1.00406555E-06
   65.8799973       6.93375569E-07
   66.0000000       3.90797510E-07
   66.1200027       1.06959483E-07
   66.2399979      -1.50308182E-07
   66.3600006      -3.76077224E-07
   66.4800034      -5.68176915E-07
   66.5999985      -7.26836788E-07
   66.7200012      -8.54170196E-07
   66.8399963      -9.53562335E-07
   66.9599991      -1.02903266E-06
   67.0800018      -1.08463757E-06
   67.1999969      -1.12397083E-06
   67.3199997      -1.14980514E-06
   67.4400024      -1.16389799E-06
   67.5599976      -1.16696492E-06
   67.6800003      -1.15880528E-06
   67.8000031      -1.13854583E-06
   67.9199982      -1.10496080E-06
   68.0400009      -1.05681499E-06
   68.1600037      -9.93185040E-07
   68.2799988      -9.13716519E-07
   68.4000015      -8.18787953E-07
   68.5199966      -7.09569690E-07
   68.6399994      -5.87977070E-07
   68.7600021      -4.56534480E-07
   68.8799973      -3.18175637E-07
   69.0000000      -1.76011000E-07
   69.1200027      -3.30949526E-08
   69.2399979       1.07777979E-07
   69.3600006       2.44225220E-07
   69.4800034       3.74362088E-07
   69.5999985       4.96815915E-07
   69.7200012       6.10671464E-07
   69.8399963       7.15357203E-07
   69.9599991       8.10487563E-07
   70.0800018       8.95680159E-07
   70.1999969       9.70367864E-07
   70.3199997       1.03362788E-06
   70.4400024       1.08404834E-06
   70.5599976       1.11965085E-06
   70.6800003       1.13788872E-06
   70.8000031       1.13572889E-06
   70.9199982       1.10982660E-06
   71.0400009       1.05678942E-06
   71.1600037       9.73520287E-07
   71.2799988       8.57618090E-07
   71.4000015       7.07803508E-07
   71.5199966       5.24333984E-07
   71.6399994       3.09362576E-07
   71.7600021       6.71958986E-08
   71.8799973      -1.95587546E-07
   72.0000000      -4.70191083E-07
   72.1200027      -7.45843010E-07
   72.2399979      -1.01023113E-06
   72.3600006      -1.25011240E-06
   72.4800034      -1.45206627E-06
   72.5999985      -1.60334309E-06
   72.7200012      -1.69275211E-06