  -30.0000000       0.00000000    
  -29.8799992       0.00000000    
  -29.7600002       0.00000000    
  -29.6399994       0.00000000    
  -29.5200005       0.00000000    
  -29.3999996       0.00000000    
  -29.2800007      -0.00000000    
  -29.1599998      -1.40129846E-45
  -29.0400009      -4.20389539E-45
  -28.9200001      -1.27518160E-43
  -28.7999992      -5.53512893E-43
  -28.6800003      -1.19110369E-42
  -28.5599995      -8.51989466E-43
  -28.4400005       4.27536161E-42
  -28.3199997       1.31806134E-41
  -28.2000008       6.77948197E-42
  -28.0799999      -5.75289072E-41
  -27.9599991      -1.77757513E-40
  -27.8400002      -1.10313018E-40
  -27.7199993       8.46408095E-40
  -27.6000004       3.59726628E-39
  -27.4799995       7.74729576E-39
  -27.3600006       8.64657345E-39
  -27.2399998      -5.04044255E-39
  -27.1200008      -4.80222910E-38
  -27.0000000      -1.22889335E-37
  -26.8799992      -1.91962397E-37
  -26.7600002      -1.52114614E-37
  -26.6399994       1.51262255E-37
  -26.5200005       8.28728809E-37
  -26.3999996       1.76057991E-36
  -26.2800007       2.39496194E-36
  -26.1599998       1.71099574E-36
  -26.0400009      -1.42624481E-36
  -25.9200001      -7.40808392E-36
  -25.7999992      -1.47377647E-35
  -25.6800003      -1.92577342E-35
  -25.5599995      -1.46971505E-35
  -25.4400005       4.72562468E-36
  -25.3199997       3.98386831E-35
  -25.2000008       8.18435015E-35
  -25.0799999       1.10397091E-34
  -24.9599991       9.75928815E-35
  -24.8400002       1.92583799E-35
  -24.7199993      -1.28597613E-34
  -24.6000004      -3.14587359E-34
  -24.4799995      -4.67129470E-34
  -24.3600006      -4.88177983E-34
  -24.2399998      -2.87898724E-34
  -24.1200008       1.66844411E-34
  -24.0000000       8.07397203E-34
  -23.8799992       1.44474905E-33
  -23.7600002       1.79801669E-33
  -23.6399994       1.57727667E-33
  -23.5200005       6.06126535E-34
  -23.3999996      -1.05461726E-33
  -23.2800007      -3.03645160E-33
  -23.1599998      -4.69719204E-33
  -23.0400009      -5.28260365E-33
  -22.9200001      -4.18953240E-33
  -22.7999992      -1.25002685E-33
  -22.6800003       3.07847754E-33
  -22.5599995       7.72234695E-33
  -22.4400005       1.12433978E-32
  -22.3199997       1.22774162E-32
  -22.2000008       1.00100610E-32
  -22.0799999       4.50138517E-33
  -21.9599991      -3.28247540E-33
  -21.8400002      -1.17467929E-32
  -21.7199993      -1.91237414E-32
  -21.6000004      -2.38845935E-32
  -21.4799995      -2.49177942E-32
  -21.3600006      -2.14371452E-32
  -21.2399998      -1.27928595E-32
  -21.1200008       1.50335378E-33
  -21.0000000       2.12743377E-32
  -20.8799992       4.46979435E-32
  -20.7600002       6.72590479E-32
  -20.6399994       8.13828946E-32
  -20.5200005       7.75479853E-32
  -20.3999996       4.72738836E-32
  -20.2800007      -1.24460284E-32
  -20.1599998      -9.46855057E-32
  -20.0400009      -1.80235022E-31
  -19.9200001      -2.39476129E-31
  -19.7999992      -2.39575200E-31
  -19.6800003      -1.56169056E-31
  -19.5599995       1.35543859E-32
  -19.4400005       2.41219646E-31
  -19.3199997       4.66206326E-31
  -19.2000008       6.06592372E-31
  -19.0799999       5.81906896E-31
  -18.9599991       3.42907524E-31
  -18.8400002      -1.00449448E-31
  -18.7199993      -6.63484935E-31
  -18.6000004      -1.19272315E-30
  -18.4799995      -1.49702281E-30
  -18.3600006      -1.39992989E-30
  -18.2399998      -8.01275724E-31
  -18.1200008       2.69513278E-31
  -18.0000000       1.62684393E-30
  -17.8799992       2.94287757E-30
  -17.7600002       3.80623115E-30
  -17.6399994       3.81781832E-30
  -17.5200005       2.70499926E-30
  -17.3999996       4.27790606E-31
  -17.2800007      -2.75078110E-30
  -17.1599998      -6.25347723E-30
  -17.0400009      -9.25025732E-30
  -16.9200001      -1.07928076E-29
  -16.7999992      -1.00090481E-29
  -16.6800003      -6.33214394E-30
  -16.5599995       2.71878725E-31
  -16.4400005       9.12270584E-30
  -16.3199997       1.87431382E-29
  -16.2000008       2.69328724E-29
  -16.0799999       3.10517655E-29
  -15.9600000       2.85411533E-29
  -15.8400002       1.76566248E-29
  -15.7200003      -1.70212052E-30
  -15.6000004      -2.72822361E-29
  -15.4799995      -5.41883441E-29
  -15.3599997      -7.53163613E-29
  -15.2399998      -8.26959170E-29
  -15.1199999      -6.96733324E-29
  -15.0000000      -3.35218098E-29
  -14.8800001       2.22678894E-29
  -14.7600002       8.69466550E-29
  -14.6400003       1.43553329E-28
  -14.5200005       1.72451378E-28
  -14.3999996       1.57025691E-28
  -14.2799997       9.03303153E-29
  -14.1599998      -1.92944447E-29
  -14.0400000      -1.45991857E-28
  -13.9200001      -2.49604421E-28
  -13.8000002      -2.85268671E-28
  -13.6800003      -2.18408521E-28
  -13.5600004      -4.17741668E-29
  -13.4399996       2.11006353E-28
  -13.3199997       4.61982445E-28
  -13.1999998       6.01220391E-28
  -13.0799999       5.17036212E-28
  -12.9600000       1.40211588E-28
  -12.8400002      -5.08935173E-28
  -12.7200003      -1.28782515E-27
  -12.6000004      -1.93244517E-27
  -12.4799995      -2.10628019E-27
  -12.3599997      -1.49958866E-27
  -12.2399998       3.71530965E-29
  -12.1199999       2.36178985E-27
  -12.0000000       4.96177409E-27
  -11.8800001       6.98063323E-27
  -11.7600002       7.38498916E-27
  -11.6400003       5.27044480E-27
  -11.5200005       2.52995285E-28
  -11.3999996      -7.16099426E-27
  -11.2799997      -1.53703169E-26
  -11.1599998      -2.17844756E-26
  -11.0400000      -2.33320743E-26
  -10.9200001      -1.73578088E-26
  -10.8000002      -2.74690824E-27
  -10.6800003       1.90337422E-26
  -10.5600004       4.33869831E-26
  -10.4399996       6.29273481E-26
  -10.3199997       6.89500485E-26
  -10.1999998       5.39493591E-26
  -10.0799999       1.46983846E-26
  -9.96000004      -4.49894986E-26
  -9.84000015      -1.12916983E-25
  -9.72000027      -1.69576622E-25
  -9.60000038      -1.92140706E-25
  -9.47999954      -1.61001815E-25
  -9.35999966      -6.74616713E-26
  -9.23999977       7.97236081E-26
  -9.11999989       2.51596092E-25
  -9.00000000       4.02222130E-25
  -8.88000011       4.78639875E-25
  -8.76000023       4.36107503E-25
  -8.64000034       2.54883202E-25
  -8.52000046      -4.69402098E-26
  -8.39999962      -4.10222388E-25
  -8.27999973      -7.44954386E-25
  -8.15999985      -9.53600207E-25
  -8.03999996      -9.62128977E-25
  -7.92000008      -7.48464374E-25
  -7.80000019      -3.55896052E-25
  -7.67999983       1.18577109E-25
  -7.55999994       5.63119680E-25
  -7.44000006       9.07084235E-25
  -7.32000017       1.17118648E-24
  -7.19999981       1.48080236E-24
  -7.07999992       2.01449970E-24
  -6.96000004       2.87857080E-24
  -6.84000015       3.93219788E-24
  -6.71999979       4.62935962E-24
  -6.59999990       3.97776722E-24
  -6.48000002       7.21739344E-25
  -6.36000013      -6.18416226E-24
  -6.23999977      -1.68401246E-23
  -6.11999989      -2.95767966E-23
  -6.00000000      -4.03673946E-23
  -5.88000011      -4.29062141E-23
  -5.76000023      -2.97644950E-23
  -5.63999987       5.17174172E-24
  -5.51999998       6.31941388E-23
  -5.40000010       1.36983740E-22
  -5.28000021       2.07926228E-22
  -5.15999985       2.46298253E-22
  -5.03999996       2.15995695E-22
  -4.92000008       8.46654875E-23
  -4.80000019      -1.61499391E-22
  -4.67999983      -5.01259940E-22
  -4.55999994      -8.65413482E-22
  -4.44000006      -1.13437178E-21
  -4.32000017      -1.15308775E-21
  -4.19999981      -7.67555047E-22
  -4.07999992       1.18492373E-22
  -3.96000004       1.47615399E-21
  -3.83999991       3.09167014E-21
  -3.72000003       4.54003895E-21
  -3.59999990       5.21924552E-21
  -3.48000002       4.46537702E-21
  -3.35999990       1.75107613E-21
  -3.24000001      -3.05803826E-21
  -3.11999989      -9.44759651E-21
  -3.00000000      -1.60878309E-20
  -2.88000011      -2.08590991E-20
  -2.75999999      -2.11592575E-20
  -2.64000010      -1.45321142E-20
  -2.51999998       4.32578403E-22
  -2.40000010       2.30929488E-20
  -2.27999997       4.99253066E-20
  -2.16000009       7.42338313E-20
  -2.03999996       8.67617660E-20
  -1.91999996       7.74453148E-20
  -1.79999995       3.82940680E-20
  -1.67999995      -3.29932781E-20
  -1.55999994      -1.29494582E-19
  -1.44000006      -2.32789847E-19
  -1.32000005      -3.13277881E-19
  -1.20000005      -3.34212478E-19
  -1.08000004      -2.59929875E-19
 -0.959999979      -6.76302029E-20
 -0.839999974       2.39342280E-19
 -0.720000029       6.20193088E-19
 -0.600000024       9.91794207E-19
 -0.479999989       1.23469931E-18
 -0.360000014       1.21318403E-18
 -0.239999995       8.09510742E-19
 -0.119999997      -3.16686324E-20
  -1.11022302E-15  -1.25780184E-18
  0.119999997      -2.67520695E-18
  0.239999995      -3.94371302E-18
  0.360000014      -4.61319207E-18
  0.479999989      -4.20950311E-18
  0.600000024      -2.36580293E-18
  0.720000029       1.02020610E-18
  0.839999974       5.63863753E-18
  0.959999979       1.06774450E-17
   1.08000004       1.48416435E-17
   1.20000005       1.65230568E-17
   1.32000005       1.41351932E-17
   1.44000006       6.58563277E-18
   1.55999994      -6.19343295E-18
   1.67999995      -2.27861193E-17
   1.79999995      -4.00681855E-17
   1.91999996      -5.33798377E-17
   2.03999996      -5.72121125E-17
   2.16000009      -4.64234936E-17
   2.27999997      -1.78586623E-17
   2.40000010       2.79257763E-17
   2.51999998       8.52743538E-17
   2.64000010       1.42915343E-16
   2.75999999       1.84812835E-16
   2.88000011       1.92704363E-16
   3.00000000       1.50293715E-16
   3.11999989       4.85941875E-17
   3.24000001      -1.08604837E-16
   3.35999990      -3.00616519E-16
   3.48000002      -4.88756910E-16
   3.59999990      -6.19768819E-16
   3.72000003      -6.34614184E-16
   3.83999991      -4.82336771E-16
   3.96000004      -1.37192299E-16
   4.07999992       3.84347606E-16
   4.19999981       1.01138963E-15
   4.32000017       1.61638239E-15
   4.44000006       2.02731216E-15
   4.55999994       2.05661675E-15
   4.67999983       1.54548329E-15
   4.80000019       4.17582823E-16
   4.92000008      -1.26849272E-15
   5.03999996      -3.28252309E-15
   5.15999985      -5.21740574E-15
   5.28000021      -6.52868728E-15
   5.40000010      -6.62542692E-15
   5.51999998      -5.00793619E-15
   5.63999987      -1.43402202E-15
   5.76000023       3.91893515E-15
   5.88000011       1.03397727E-14
   6.00000000       1.65647864E-14
   6.11999989       2.08949577E-14
   6.23999977       2.14697441E-14
   6.36000013       1.66854801E-14
   6.48000002       5.70510105E-15
   6.59999990      -1.10369249E-14
   6.71999979      -3.14644856E-14
   6.84000015      -5.17680618E-14
   6.96000004      -6.67171328E-14
   7.07999992      -7.04468222E-14
   7.19999981      -5.76960287E-14
   7.32000017      -2.53536511E-14
   7.44000006       2.59584716E-14
   7.55999994       9.06441602E-14
   7.67999983       1.57662864E-13
   7.80000019       2.11226476E-13
   7.92000008       2.32915331E-13
   8.03999996       2.05211851E-13
   8.15999985       1.16107942E-13
   8.27999973      -3.59378665E-14
   8.39999962      -2.37756863E-13
   8.52000046      -4.59208626E-13
   8.64000034      -6.54148122E-13
   8.76000023      -7.65542469E-13
   8.88000011      -7.35013558E-13
   9.00000000      -5.16140787E-13
   9.11999989      -8.97602373E-14
   9.23999977       5.21579850E-13
   9.35999966       1.24363616E-12
   9.47999954       1.94882045E-12
   9.60000038       2.46618156E-12
   9.72000027       2.60482564E-12
   9.84000015       2.19018445E-12
   9.96000004       1.10947482E-12
   10.0799999      -6.40588006E-13
   10.1999998      -2.91360317E-12
   10.3199997      -5.39225609E-12
   10.4399996      -7.59719804E-12
   10.5600004      -8.93441831E-12
   10.6800003      -8.78399697E-12
   10.8000002      -6.62531575E-12
   10.9200001      -2.18438223E-12
   11.0400000       4.42037856E-12
   11.1599998       1.25649933E-11
   11.2799997       2.10739533E-11
   11.3999996       2.82732553E-11
   11.5200005       3.21644031E-11
   11.6400003       3.07238505E-11
   11.7600002       2.23085283E-11
   11.8800001       6.12068989E-12
   12.0000000      -1.73411095E-11
   12.1199999      -4.59386383E-11
   12.2399998      -7.57601620E-11
   12.3599997      -1.01289428E-10
   12.4799995      -1.15941402E-10
   12.6000004      -1.12978626E-10
   12.7200003      -8.67543190E-11
   12.8400002      -3.41508176E-11
   12.9600000       4.39941278E-11
   13.0799999       1.41740814E-10
   13.1999998       2.47477261E-10
   13.3199997       3.44205470E-10
   13.4399996       4.10893347E-10
   13.5600004       4.24973889E-10
   13.6800003       3.65894259E-10
   13.8000002       2.19406660E-10
   13.9200001      -1.79234995E-11
   14.0400000      -3.34703071E-10
   14.1599998      -7.02018499E-10
   14.2799997      -1.07290310E-09
   14.3999996      -1.38467626E-09
   14.5200005      -1.56459135E-09
   14.6400003      -1.53880930E-09
   14.7600002      -1.24418398E-09
   14.8800001      -6.41758646E-10
   15.0000000       2.69689909E-10
   15.1199999       1.44217183E-09
   15.2399998       2.77141465E-09
   15.3599997       4.09648715E-09
   15.4799995       5.20797983E-09
   15.6000004       5.86579674E-09
   15.7200003       5.82647885E-09
   15.8400002       4.87854912E-09
   15.9600000       2.88286328E-09
   16.0799999      -1.86513707E-10
   16.2000008      -4.20654711E-09
   16.3199997      -8.88087293E-09
   16.4400005      -1.37330582E-08
   16.5599995      -1.81227904E-08
   16.6800003      -2.12884768E-08
   16.7999992      -2.24170780E-08
   16.9200001      -2.07386517E-08
   17.0400009      -1.56393618E-08
   17.1599998      -6.78300260E-09
   17.2800007       5.77214943E-09
   17.3999996       2.14766196E-08
   17.5200005       3.92295014E-08
   17.6399994       5.73701442E-08
   17.7600002       7.37344124E-08
   17.8799992       8.57831424E-08
   18.0000000       9.08042281E-08
   18.1200008       8.61811955E-08
   18.2399998       6.97131455E-08
   18.3600006       3.99620177E-08
   18.4799995      -3.40421868E-09
   18.6000004      -5.93092011E-08
   18.7199993      -1.25046256E-07
   18.8400002      -1.96175478E-07
   18.9599991      -2.66573778E-07
   19.0799999      -3.28663248E-07
   19.2000008      -3.73830431E-07
   19.3199997      -3.93034355E-07
   19.4400005      -3.77583291E-07
   19.5599995      -3.20042830E-07
   19.6800003      -2.15220879E-07
   19.7999992      -6.11604207E-08
   19.9200001       1.39938848E-07
   20.0400009       3.80954418E-07
   20.1599998       6.49313051E-07
   20.2800007       9.26776181E-07
   20.3999996       1.18959770E-06
   20.5200005       1.40909378E-06
   20.6399994       1.55263660E-06
   20.7600002       1.58505588E-06
   20.8799992       1.47040021E-06
   21.0000000       1.17398065E-06
   21.1200008       6.64592335E-07
   21.2399998      -8.32090663E-08
   21.3600006      -1.08691893E-06
   21.4799995      -2.35412335E-06
   21.6000004      -3.88090893E-06
   21.7199993      -5.65076289E-06
   21.8400002      -7.63407297E-06
   21.9599991      -9.78828211E-06
   22.0799999      -1.20587429E-05
   22.2000008      -1.43802590E-05
   22.3199997      -1.66792506E-05
   22.4400005      -1.88764716E-05
   22.5599995      -2.08901347E-05
   22.6800003      -2.26393004E-05
   22.7999992      -2.40473673E-05
   22.9200001      -2.50454577E-05
   23.0400009      -2.55755513E-05
   23.1599998      -2.55931991E-05
   23.2800007      -2.50696557E-05
   23.3999996      -2.39933725E-05
   23.5200005      -2.23707266E-05
   23.6399994      -2.02260126E-05
   23.7600002      -1.76006688E-05
   23.8799992      -1.45518015E-05
   24.0000000      -1.11501213E-05
   24.1200008      -7.47734475E-06
   24.2399998      -3.62325773E-06
   24.3600006       3.17467993E-07
   24.4799995       4.24853124E-06
   24.6000004       8.07520246E-06
   24.7199993       1.17073387E-05
   24.8400002       1.50621108E-05
   24.9599991       1.80663519E-05
   25.0799999       2.06584664E-05
   25.2000008       2.27898490E-05
   25.3199997       2.44258317E-05
   25.4400005       2.55461327E-05
   25.5599995       2.61448404E-05
   25.6800003       2.62299818E-05
   25.7999992       2.58227155E-05
   25.9200001       2.49561763E-05
   26.0400009       2.36740925E-05
   26.1599998       2.20291604E-05
   26.2800007       2.00812738E-05
   26.3999996       1.78956507E-05
   26.5200005       1.55408925E-05
   26.6399994       1.30870440E-05
   26.7600002       1.06036641E-05
   26.8799992       8.15797102E-06
   27.0000000       5.81308359E-06
   27.1200008       3.62639821E-06
   27.2399998       1.64813343E-06
   27.3600006      -7.99204045E-08
   27.4799995      -1.52541645E-06
   27.6000004      -2.66619918E-06
   27.7199993      -3.49075799E-06
   27.8400002      -3.99836426E-06
   27.9599991      -4.19887328E-06
   28.0799999      -4.11219025E-06
   28.2000008      -3.76739558E-06
   28.3199997      -3.20155641E-06
   28.4400005      -2.45824504E-06
   28.5599995      -1.58580940E-06
   28.6800003      -6.35457013E-07
   28.7999992       3.40787892E-07
   28.9200001       1.29216983E-06
   29.0400009       2.17124921E-06
   29.1599998       2.93582298E-06
   29.2800007       3.55063253E-06
   29.3999996       3.98877864E-06
   29.5200005       4.23277152E-06
   29.6399994       4.27516079E-06
   29.7600002       4.11870860E-06
   29.8799992       3.77608126E-06
   30.0000000       3.26907411E-06
   30.1200008       2.62739172E-06
   30.2399998       1.88704155E-06
   30.3600006       1.08841220E-06
   30.4799995       2.74134550E-07
   30.6000004      -5.13169084E-07
   30.7199993      -1.23312725E-06
   30.8400002      -1.84973362E-06
   30.9599991      -2.33321634E-06
   31.0799999      -2.66155826E-06
   31.2000008      -2.82157794E-06
   31.3199997      -2.80951258E-06
   31.4400005      -2.63106313E-06
   31.5599995      -2.30090291E-06
   31.6800003      -1.84168027E-06
   31.7999992      -1.28257341E-06
   31.9200001      -6.57492023E-07
   32.0400009      -3.03500736E-09
   32.1599998       6.43666453E-07
   32.2799988       1.24708663E-06
   32.4000015       1.77529193E-06
   32.5200005       2.20165612E-06
   32.6399994       2.50620519E-06
   32.7599983       2.67651535E-06
   32.8800011       2.70812484E-06
   33.0000000       2.60445108E-06
   33.1199989       2.37623681E-06
   33.2400017       2.04058324E-06
   33.3600006       1.61965170E-06
   33.4799995       1.13913472E-06
   33.5999985       6.26607459E-07
   33.7200012       1.09871820E-07
   33.8400002      -3.84600867E-07
   33.9599991      -8.33037859E-07
   34.0800018      -1.21547305E-06
   34.2000008      -1.51654785E-06
   34.3199997      -1.72598368E-06
   34.4399986      -1.83873055E-06
   34.5600014      -1.85481713E-06
   34.6800003      -1.77894674E-06
   34.7999992      -1.61989578E-06
   34.9199982      -1.38977839E-06
   35.0400009      -1.10323924E-06
   35.1599998      -7.76632987E-07
   35.2799988      -4.27237808E-07
   35.4000015      -7.25387252E-08
   35.5200005       2.70399653E-07
   35.6399994       5.85462431E-07
   35.7599983       8.57920895E-07
   35.8800011       1.07478854E-06
   36.0000000       1.22511437E-06
   36.1199989       1.30023147E-06
   36.2400017       1.29397688E-06
   36.3600006       1.20288985E-06
   36.4799995       1.02639103E-06
   36.5999985       7.66933226E-07
   36.7200012       4.30106411E-07
   36.8400002       2.46748080E-08
   36.9599991      -4.37482669E-07
   37.0800018      -9.41553765E-07
   37.2000008      -1.47011951E-06
   37.3199997      -2.00363934E-06
   37.4399986      -2.52109794E-06
   37.5600014      -3.00080251E-06
   37.6800003      -3.42130124E-06
   37.7999992      -3.76238813E-06
   37.9199982      -4.00613726E-06
   38.0400009      -4.13790849E-06
   38.1599998      -4.14725628E-06
   38.2799988      -4.02868409E-06
   38.4000015      -3.78217828E-06
   38.5200005      -3.41347754E-06
   38.6399994      -2.93404719E-06
   38.7599983      -2.36073902E-06
   38.8800011      -1.71514318E-06
   39.0000000      -1.02265835E-06
   39.1199989      -3.11321401E-07
   39.2400017       3.89541555E-07
   39.3600006       1.05077072E-06
   39.4799995       1.64485255E-06
   39.5999985       2.14733950E-06
   39.7200012       2.53812550E-06
   39.8400002       2.80250219E-06
   39.9599991       2.93192807E-06
   40.0800018       2.92446452E-06
   40.2000008       2.78484413E-06
   40.3199997       2.52416680E-06
   40.4399986       2.15923183E-06
   40.5600014       1.71154534E-06
   40.6800003       1.20605614E-06
   40.7999992       6.69696476E-07
   40.9199982       1.29814609E-07
   41.0400009      -3.87402025E-07
   41.1599998      -8.58413728E-07
   41.2799988      -1.26362670E-06
   41.4000015      -1.58841715E-06
   41.5200005      -1.82380927E-06
   41.6399994      -1.96676160E-06
   41.7599983      -2.02004026E-06
   41.8800011      -1.99169085E-06
   42.0000000      -1.89414709E-06
   42.1199989      -1.74304830E-06
   42.2400017      -1.55585519E-06
   42.3600006      -1.35037749E-06
   42.4799995      -1.14332875E-06
   42.5999985      -9.49027026E-07
   42.7200012      -7.78346362E-07
   42.8400002      -6.38003996E-07
   42.9599991      -5.30239163E-07
   43.0800018      -4.52905681E-07
   43.2000008      -3.99963170E-07
   43.3199997      -3.62316598E-07
   43.4399986      -3.28922454E-07
   43.5600014      -2.88055304E-07
   43.6800003      -2.28615107E-07
   43.7999992      -1.41352061E-07
   43.9199982      -1.98955306E-08
   44.0400009       1.38507502E-07
   44.1599998       3.32610654E-07
   44.2799988       5.57174019E-07
   44.4000015       8.03352407E-07
   44.5200005       1.05942422E-06
   44.6399994       1.31178729E-06
   44.7599983       1.54612496E-06
   44.8800011       1.74862907E-06
   45.0000000       1.90716719E-06
   45.1199989       2.01228204E-06
   45.2400017       2.05793799E-06
   45.3600006       2.04194635E-06
   45.4799995       1.96604105E-06
   45.5999985       1.83560508E-06
   45.7200012       1.65908318E-06
   45.8400002       1.44714420E-06
   45.9599991       1.21168023E-06
   46.0800018       9.64740025E-07
   46.2000008       7.17500029E-07
   46.3199997       4.79367031E-07
   46.4399986       2.57294289E-07
   46.5600014       5.53679342E-08
   46.6800003      -1.25305675E-07
   46.7999992      -2.86409488E-07
   46.9199982      -4.31948962E-07
   47.0400009      -5.67560051E-07
   47.1599998      -6.99662223E-07
   47.2799988      -8.34539321E-07
   47.4000015      -9.77435093E-07
   47.5200005      -1.13174747E-06
   47.6399994      -1.29839543E-06
   47.7599983      -1.47541573E-06
   47.8800011      -1.65782683E-06
   48.0000000      -1.83777468E-06
   48.1199989      -2.00495356E-06
   48.2400017      -2.14726924E-06
   48.3600006      -2.25170083E-06
   48.4799995      -2.30529372E-06
   48.5999985      -2.29621446E-06
   48.7200012      -2.21478558E-06
   48.8400002      -2.05443052E-06
   48.9599991      -1.81244764E-06
   49.0800018      -1.49055927E-06
   49.2000008      -1.09518362E-06
   49.3199997      -6.37398216E-07
   49.4399986      -1.32585242E-07
   49.5600014       4.00231357E-07
   49.6800003       9.39327720E-07
   49.7999992       1.46144691E-06
   49.9199982       1.94312202E-06
   50.0400009       2.36207029E-06
   50.1599998       2.69856810E-06
   50.2799988       2.93670769E-06
   50.4000015       3.06544757E-06
   50.5200005       3.07937421E-06
   50.6399994       2.97911356E-06
   50.7599983       2.77135064E-06
   50.8800011       2.46845002E-06
   51.0000000       2.08768620E-06
   51.1199989       1.65013864E-06
   51.2400017       1.17932325E-06
   51.3600006       6.99657335E-07
   51.4799995       2.34869560E-07
   51.5999985      -1.93524244E-07
   51.7200012      -5.67564712E-07
   51.8400002      -8.73910892E-07
   51.9599991      -1.10453993E-06
   52.0800018      -1.25703320E-06
   52.2000008      -1.33443257E-06
   52.3199997      -1.34468507E-06
   52.4399986      -1.29972580E-06
   52.5600014      -1.21428093E-06
   52.6800003      -1.10449275E-06
   52.7999992      -9.86482860E-07
   52.9199982      -8.74974205E-07
   53.0400009      -7.82082168E-07
   53.1599998      -7.16372085E-07
   53.2799988      -6.82255234E-07
   53.4000015      -6.79763275E-07
   53.5200005      -7.04711169E-07
   53.6399994      -7.49223545E-07
   53.7599983      -8.02571719E-07
   53.8800011      -8.52243659E-07
   54.0000000      -8.85153668E-07
   54.1199989      -8.88888962E-07
   54.2400017      -8.52891674E-07
   54.3600006      -7.69481176E-07
   54.4799995      -6.34638354E-07
   54.5999985      -4.48490653E-07
   54.7200012      -2.15465249E-07
   54.8400002       5.59006352E-08
   54.9599991       3.53472899E-07
   55.0800018       6.62315927E-07
   55.2000008       9.65707841E-07
   55.3199997       1.24629571E-06
   55.4399986       1.48730521E-06
   55.5600014       1.67371252E-06
   55.6800003       1.79329481E-06
   55.7999992       1.83748352E-06
   55.9199982       1.80196105E-06
   56.0400009       1.68696408E-06
   56.1599998       1.49727475E-06
   56.2799988       1.24190785E-06
   56.4000015       9.33522927E-07
   56.5200005       5.87607872E-07
   56.6399994       2.21497984E-07
   56.7599983      -1.46697886E-07
   56.8800011      -4.99189184E-07
   57.0000000      -8.19539423E-07
   57.1199989      -1.09358120E-06
   57.2400017      -1.31015588E-06
   57.3600006      -1.46163882E-06
   57.4799995      -1.54422708E-06
   57.5999985      -1.55798057E-06
   57.7200012      -1.50662561E-06
   57.8400002      -1.39714200E-06
   57.9599991      -1.23916698E-06
   58.0800018      -1.04426147E-06
   58.2000008      -8.25088421E-07
   58.3199997      -5.94562607E-07
   58.4399986      -3.65027944E-07
   58.5600014      -1.47521504E-07
   58.6800003       4.88259317E-08
   58.7999992       2.17211337E-07
   58.9199982       3.53375981E-07
   59.0400009       4.55606283E-07
   59.1599998       5.24528673E-07
   59.2799988       5.62725234E-07
   59.4000015       5.74216529E-07
   59.5200005       5.63868639E-07
   59.6399994       5.36791333E-07
   59.7599983       4.97792598E-07
   59.8800011       4.50947397E-07
   60.0000000       3.99325614E-07
   60.1199989       3.44900542E-07
   60.2400017       2.88638887E-07
   60.3600006       2.30748014E-07
   60.4799995       1.71035353E-07
   60.5999985       1.09320951E-07
   60.7200012       4.58364973E-08
   60.8400002      -1.84535445E-08
   60.9599991      -8.16632308E-08
   61.0800018      -1.40963891E-07
   61.2000008      -1.92744395E-07
   61.3199997      -2.32941218E-07
   61.4399986      -2.57502620E-07
   61.5600014      -2.62933838E-07
   61.6800003      -2.46855819E-07
   61.7999992      -2.08507856E-07
   61.9199982      -1.49126990E-07
   62.0400009      -7.21508329E-08
   62.1599998       1.67919438E-08
   62.2799988       1.10116623E-07
   62.4000015       1.98731755E-07
   62.5200005       2.72670917E-07
   62.6399994       3.21854657E-07
   62.7599983       3.36918845E-07
   62.8800011       3.10036938E-07
   63.0000000       2.35667088E-07
   63.1199989       1.11159096E-07
   63.2400017      -6.28281640E-08
   63.3600006      -2.82133954E-07
   63.4799995      -5.39141070E-07
   63.5999985      -8.23055530E-07
   63.7200012      -1.12039857E-06
   63.8400002      -1.41567500E-06
   63.9599991      -1.69217333E-06
   64.0800018      -1.93284723E-06
   64.1999969      -2.12123246E-06
   64.3199997      -2.24234964E-06
   64.4400024      -2.28356021E-06
   64.5599976      -2.23533584E-06
   64.6800003      -2.09192285E-06
   64.8000031      -1.85187002E-06
   64.9199982      -1.51840572E-06
   65.0400009      -1.09963355E-06
   65.1600037      -6.08526364E-07
   65.2799988      -6.26891818E-08
   65.4000015       5.16133355E-07
   65.5199966       1.10282372E-06
   65.6399994       1.66993652E-06
   65.7600021       2.18900982E-06
   65.8799973       2.63210131E-06
   66.0000000       2.97348038E-06
   66.1200027       3.19137780E-06
   66.2399979       3.26967347E-06
   66.3600006       3.19937590E-06
   66.4800034       2.97975521E-06
   66.5999985       2.61899072E-06
   66.7200012       2.13422732E-06
   66.8399963       1.55097439E-06
   66.9599991       9.01829708E-07
   67.0800018       2.24579239E-07
   67.1999969      -4.40221072E-07
   67.3199997      -1.05201752E-06
   67.4400024      -1.57317345E-06
   67.5599976      -1.97179133E-06
   67.6800003      -2.22419840E-06
   67.8000031      -2.31687068E-06
   67.9199982      -2.24760765E-06
   68.0400009      -2.02583192E-06
   68.1600037      -1.67195969E-06
   68.2799988      -1.21586743E-06
   68.4000015      -6.94563994E-07
   68.5199966      -1.49248649E-07
   68.6399994       3.78004870E-07
   68.7600021       8.47660885E-07
   68.8799973       1.22593895E-06
   69.0000000       1.48755635E-06
   69.1200027       1.61775313E-06
   69.2399979       1.61342018E-06
   69.3600006       1.48322272E-06
   69.4800034       1.24670646E-06
   69.5999985       9.32457965E-07
   69.7200012       5.75481010E-07
   69.8399963       2.14017135E-07
   69.9599991      -1.13907696E-07
   70.0800018      -3.73905607E-07
   70.1999969      -5.38315703E-07
   70.3199997      -5.88687328E-07
   70.4400024      -5.17441606E-07
   70.5599976      -3.28569286E-07
   70.6800003      -3.73101265E-08
   70.8000031       3.31148897E-07
   70.9199982       7.43834107E-07
   71.0400009       1.16280580E-06
   71.1600037       1.54838858E-06
   71.2799988       1.86252589E-06
   71.4000015       2.07197354E-06
   71.5199966       2.15106502E-06
   71.6399994       2.08382903E-06
   71.7600021       1.86529530E-06
   71.8799973       1.50191011E-06
   72.0000000       1.01104411E-06
   72.1200027       4.19664900E-07
   72.2399979      -2.37700007E-07
   72.3600006      -9.21526350E-07
   72.4800034      -1.59016986E-06
   72.5999985      -2.20282800E-06
   72.7200012      -2.72236321E-06