  -30.0000000       0.00000000    
  -29.8799992       0.00000000    
  -29.7600002       0.00000000    
  -29.6399994       0.00000000    
  -29.5200005       0.00000000    
  -29.3999996       0.00000000    
  -29.2800007       0.00000000    
  -29.1599998       0.00000000    
  -29.0400009       0.00000000    
  -28.9200001      -4.70275765E-42
  -28.7999992       6.56217421E-39
  -28.6800003       1.04310102E-36
  -28.5599995       3.07465786E-35
  -28.4400005       3.46058787E-34
  -28.3199997       1.81956644E-33
  -28.2000008       1.37862363E-33
  -28.0799999      -5.12219783E-32
  -27.9599991      -4.47392304E-31
  -27.8400002      -2.23433640E-30
  -27.7199993      -7.78496167E-30
  -27.6000004      -1.90736744E-29
  -27.4799995      -2.66665915E-29
  -27.3600006       2.12080486E-29
  -27.2399998       2.67281063E-28
  -27.1200008       9.50840762E-28
  -27.0000000       2.18993546E-27
  -26.8799992       3.25591515E-27
  -26.7600002       1.24055494E-27
  -26.6399994      -1.00619917E-26
  -26.5200005      -3.83551321E-26
  -26.3999996      -8.35294306E-26
  -26.2800007      -1.17521145E-25
  -26.1599998      -5.94857822E-26
  -26.0400009       2.26944682E-25
  -25.9200001       8.63278789E-25
  -25.7999992       1.76050147E-24
  -25.6800003       2.31212706E-24
  -25.5599995       1.15681857E-24
  -25.4400005      -3.57753233E-24
  -25.3199997      -1.30128262E-23
  -25.2000008      -2.50011825E-23
  -25.0799999      -3.11140530E-23
  -24.9599991      -1.55752003E-23
  -24.8400002       3.99281253E-23
  -24.7199993       1.42039619E-22
  -24.6000004       2.63027733E-22
  -24.4799995       3.19650175E-22
  -24.3600006       1.74820576E-22
  -24.2399998      -3.11367943E-22
  -24.1200008      -1.16656044E-21
  -24.0000000      -2.14997226E-21
  -23.8799992      -2.63732240E-21
  -23.7600002      -1.68324671E-21
  -23.6399994       1.60189816E-21
  -23.5200005       7.32950847E-21
  -23.3999996       1.39632449E-20
  -23.2800007       1.77960283E-20
  -23.1599998       1.34658146E-20
  -23.0400009      -3.92017492E-21
  -22.9200001      -3.51073934E-20
  -22.7999992      -7.26130290E-20
  -22.6800003      -9.85838442E-20
  -22.5599995      -8.74964058E-20
  -22.4400005      -1.57085007E-20
  -22.3199997       1.22939667E-19
  -22.2000008       3.00545813E-19
  -22.0799999       4.46716667E-19
  -21.9599991       4.58665963E-19
  -21.8400002       2.36157635E-19
  -21.7199993      -2.62556148E-19
  -21.6000004      -9.61638408E-19
  -21.4799995      -1.63528075E-18
  -21.3600006      -1.93425784E-18
  -21.2399998      -1.49001895E-18
  -21.1200008      -8.45994448E-20
  -21.0000000       2.16447503E-18
  -20.8799992       4.68687359E-18
  -20.7600002       6.49745408E-18
  -20.6399994       6.44204042E-18
  -20.5200005       3.62886699E-18
  -20.3999996      -2.06977939E-18
  -20.2800007      -9.63647298E-18
  -20.1599998      -1.68557952E-17
  -20.0400009      -2.07300924E-17
  -19.9200001      -1.83575019E-17
  -19.7999992      -8.08001272E-18
  -19.6800003       9.44961619E-18
  -19.5599995       3.06978074E-17
  -19.4400005       4.95213280E-17
  -19.3199997       5.84205837E-17
  -19.2000008       5.06305110E-17
  -19.0799999       2.26140079E-17
  -18.9599991      -2.36955482E-17
  -18.8400002      -7.96473948E-17
  -18.7199993      -1.30300997E-16
  -18.6000004      -1.56967130E-16
  -18.4799995      -1.41872301E-16
  -18.3600006      -7.43364850E-17
  -18.2399998       4.28996115E-17
  -18.1200008       1.89274488E-16
  -18.0000000       3.26360550E-16
  -17.8799992       4.04188426E-16
  -17.7600002       3.74468475E-16
  -17.6399994       2.08715800E-16
  -17.5200005      -8.36801451E-17
  -17.3999996      -4.44646028E-16
  -17.2800007      -7.71198723E-16
  -17.1599998      -9.38049390E-16
  -17.0400009      -8.37031235E-16
  -16.9200001      -4.23461469E-16
  -16.7999992       2.46988905E-16
  -16.6800003       1.00904716E-15
  -16.5599995       1.61872189E-15
  -16.4400005       1.82391393E-15
  -16.3199997       1.45760034E-15
  -16.2000008       5.22094697E-16
  -16.0799999      -7.71961158E-16
  -15.9600000      -2.03881381E-15
  -15.8400002      -2.82664720E-15
  -15.7200003      -2.77553003E-15
  -15.6000004      -1.77110216E-15
  -15.4799995      -3.13146062E-17
  -15.3599997       1.92145634E-15
  -15.2399998       3.41244651E-15
  -15.1199999       3.85068039E-15
  -15.0000000       2.96758988E-15
  -14.8800001       9.61892944E-16
  -14.7600002      -1.52167606E-15
  -14.6400003      -3.59400738E-15
  -14.5200005      -4.44476643E-15
  -14.3999996      -3.66955637E-15
  -14.2799997      -1.46684317E-15
  -14.1599998       1.39113790E-15
  -14.0400000       3.82479464E-15
  -13.9200001       4.86254933E-15
  -13.8000002       4.04370946E-15
  -13.6800003       1.63644171E-15
  -13.5600004      -1.43797649E-15
  -13.4399996      -3.96490447E-15
  -13.3199997      -4.94368662E-15
  -13.1999998      -4.02769926E-15
  -13.0799999      -1.69319811E-15
  -12.9600000       9.61255023E-16
  -12.8400002       2.72049322E-15
  -12.7200003       2.84883841E-15
  -12.6000004       1.49541772E-15
  -12.4799995      -3.13277359E-16
  -12.3599997      -1.14273427E-15
  -12.2399998       8.87019785E-17
  -12.1199999       3.39626881E-15
  -12.0000000       7.43218810E-15
  -11.8800001       9.83506642E-15
  -11.7600002       8.18393323E-15
  -11.6400003       1.22260280E-15
  -11.5200005      -1.01643217E-14
  -11.3999996      -2.27198699E-14
  -11.2799997      -3.15774154E-14
  -11.1599998      -3.18782612E-14
  -11.0400000      -2.07245127E-14
  -10.9200001       1.26111326E-15
  -10.8000002       2.94310712E-14
  -10.6800003       5.59919508E-14
  -10.5600004       7.21071762E-14
  -10.4399996       7.06093441E-14
  -10.3199997       4.84616179E-14
  -10.1999998       8.16365272E-15
  -10.0799999      -4.23698992E-14
  -9.96000004      -9.14523381E-14
  -9.84000015      -1.26339084E-13
  -9.72000027      -1.36298240E-13
  -9.60000038      -1.15298450E-13
  -9.47999954      -6.37465680E-14
  -9.35999966       1.10322094E-14
  -9.23999977       9.56398860E-14
  -9.11999989       1.72680108E-13
  -9.00000000       2.23850140E-13
  -8.88000011       2.33707042E-13
  -8.76000023       1.93562194E-13
  -8.64000034       1.04710240E-13
  -8.52000046      -1.99781055E-14
  -8.39999962      -1.57006786E-13
  -8.27999973      -2.76220561E-13
  -8.15999985      -3.47454948E-13
  -8.03999996      -3.48554979E-13
  -7.92000008      -2.72623937E-13
  -7.80000019      -1.32083025E-13
  -7.67999983       4.23599991E-14
  -7.55999994       2.08420873E-13
  -7.44000006       3.23424528E-13
  -7.32000017       3.57058621E-13
  -7.19999981       3.01798056E-13
  -7.07999992       1.77293577E-13
  -6.96000004       2.64885499E-14
  -6.84000015      -9.63526947E-14
  -6.71999979      -1.42857500E-13
  -6.59999990      -8.80922735E-14
  -6.48000002       5.71836822E-14
  -6.36000013       2.44215889E-13
  -6.23999977       3.96047778E-13
  -6.11999989       4.28126610E-13
  -6.00000000       2.75037317E-13
  -5.88000011      -8.37215022E-14
  -5.76000023      -6.06649876E-13
  -5.63999987      -1.18815548E-12
  -5.51999998      -1.67447772E-12
  -5.40000010      -1.89617723E-12
  -5.28000021      -1.71111346E-12
  -5.15999985      -1.04820059E-12
  -5.03999996       5.93814006E-14
  -4.92000008       1.46178577E-12
  -4.80000019       2.90732933E-12
  -4.67999983       4.08494115E-12
  -4.55999994       4.68761488E-12
  -4.44000006       4.48396268E-12
  -4.32000017       3.38118466E-12
  -4.19999981       1.46284905E-12
  -4.07999992      -1.01061130E-12
  -3.96000004      -3.64247955E-12
  -3.83999991      -5.97493149E-12
  -3.72000003      -7.58268795E-12
  -3.59999990      -8.16283586E-12
  -3.48000002      -7.59793964E-12
  -3.35999990      -5.97539726E-12
  -3.24000001      -3.55715912E-12
  -3.11999989      -7.07757962E-13
  -3.00000000       2.19888083E-12
  -2.88000011       4.86607759E-12
  -2.75999999       7.12746268E-12
  -2.64000010       8.94891886E-12
  -2.51999998       1.03779468E-11
  -2.40000010       1.14572579E-11
  -2.27999997       1.21338955E-11
  -2.16000009       1.22005739E-11
  -2.03999996       1.12990632E-11
  -1.91999996       8.99711555E-12
  -1.79999995       4.92553611E-12
  -1.67999995      -1.06155438E-12
  -1.55999994      -8.75372951E-12
  -1.44000006      -1.75264508E-11
  -1.32000005      -2.63866394E-11
  -1.20000005      -3.41181527E-11
  -1.08000004      -3.94903520E-11
 -0.959999979      -4.14696992E-11
 -0.839999974      -3.93709475E-11
 -0.720000029      -3.29031281E-11
 -0.600000024      -2.21011646E-11
 -0.479999989      -7.17380929E-12
 -0.360000014       1.16720566E-11
 -0.239999995       3.43638937E-11
 -0.119999997       6.10047846E-11
  -1.11022302E-15   9.18139176E-11
  0.119999997       1.26999466E-10
  0.239999995       1.66627157E-10
  0.360000014       2.10551757E-10
  0.479999989       2.58454758E-10
  0.600000024       3.09986342E-10
  0.720000029       3.64963032E-10
  0.839999974       4.23543367E-10
  0.959999979       4.86304219E-10
   1.08000004       5.54175095E-10
   1.20000005       6.28241015E-10
   1.32000005       7.09479475E-10
   1.44000006       7.98527411E-10
   1.55999994       8.95570007E-10
   1.67999995       1.00039921E-09
   1.79999995       1.11262932E-09
   1.91999996       1.23199106E-09
   2.03999996       1.35859757E-09
   2.16000009       1.49307633E-09
   2.27999997       1.63651581E-09
   2.40000010       1.79024473E-09
   2.51999998       1.95553063E-09
   2.64000010       2.13331952E-09
   2.75999999       2.32412956E-09
   2.88000011       2.52815147E-09
   3.00000000       2.74553758E-09
   3.11999989       2.97677083E-09
   3.24000001       3.22298366E-09
   3.35999990       3.48609230E-09
   3.48000002       3.76868714E-09
   3.59999990       4.07370360E-09
   3.72000003       4.40397940E-09
   3.83999991       4.76185624E-09
   3.96000004       5.14895948E-09
   4.07999992       5.56624213E-09
   4.19999981       6.01426020E-09
   4.32000017       6.49358389E-09
   4.44000006       7.00517999E-09
   4.55999994       7.55062768E-09
   4.67999983       8.13208612E-09
   4.80000019       8.75204709E-09
   4.92000008       9.41298417E-09
   5.03999996       1.01170610E-08
   5.15999985       1.08660609E-08
   5.28000021       1.16615944E-08
   5.40000010       1.25055637E-08
   5.51999998       1.34007268E-08
   5.63999987       1.43511949E-08
   5.76000023       1.53626498E-08
   5.88000011       1.64422254E-08
   6.00000000       1.75980261E-08
   6.11999989       1.88384774E-08
   6.23999977       2.01716315E-08
   6.36000013       2.16046896E-08
   6.48000002       2.31438051E-08
   6.59999990       2.47942147E-08
   6.71999979       2.65605902E-08
   6.84000015       2.84474684E-08
   6.96000004       3.04596171E-08
   7.07999992       3.26022516E-08
   7.19999981       3.48811291E-08
   7.32000017       3.73025699E-08
   7.44000006       3.98735018E-08
   7.55999994       4.26016591E-08
   7.67999983       4.54957885E-08
   7.80000019       4.85658802E-08
   7.92000008       5.18232852E-08
   8.03999996       5.52805339E-08
   8.15999985       5.89509170E-08
   8.27999973       6.28478958E-08
   8.39999962       6.69845051E-08
   8.52000046       7.13730302E-08
   8.64000034       7.60249961E-08
   8.76000023       8.09516294E-08
   8.88000011       8.61645759E-08
   9.00000000       9.16766467E-08
   9.11999989       9.75023369E-08
   9.23999977       1.03657925E-07
   9.35999966       1.10161139E-07
   9.47999954       1.17030446E-07
   9.60000038       1.24284327E-07
   9.72000027       1.31940865E-07
   9.84000015       1.40017804E-07
   9.96000004       1.48533090E-07
   10.0799999       1.57505809E-07
   10.1999998       1.66957236E-07
   10.3199997       1.76911371E-07
   10.4399996       1.87395088E-07
   10.5600004       1.98437306E-07
   10.6800003       2.10067995E-07
   10.8000002       2.22316757E-07
   10.9200001       2.35211900E-07
   11.0400000       2.48780140E-07
   11.1599998       2.63047014E-07
   11.2799997       2.78038129E-07
   11.3999996       2.93780460E-07
   11.5200005       3.10303335E-07
   11.6400003       3.27638958E-07
   11.7600002       3.45822031E-07
   11.8800001       3.64888564E-07
   12.0000000       3.84874596E-07
   12.1199999       4.05815001E-07
   12.2399998       4.27743089E-07
   12.3599997       4.50691175E-07
   12.4799995       4.74691916E-07
   12.6000004       4.99780413E-07
   12.7200003       5.25995574E-07
   12.8400002       5.53381540E-07
   12.9600000       5.81986910E-07
   13.0799999       6.11864095E-07
   13.1999998       6.43066926E-07
   13.3199997       6.75648721E-07
   13.4399996       7.09660185E-07
   13.5600004       7.45149180E-07
   13.6800003       7.82160953E-07
   13.8000002       8.20739217E-07
   13.9200001       8.60928424E-07
   14.0400000       9.02775128E-07
   14.1599998       9.46328612E-07
   14.2799997       9.91641173E-07
   14.3999996       1.03876664E-06
   14.5200005       1.08775896E-06
   14.6400003       1.13867077E-06
   14.7600002       1.19155288E-06
   14.8800001       1.24645408E-06
   15.0000000       1.30342232E-06
   15.1199999       1.36250662E-06
   15.2399998       1.42375757E-06
   15.3599997       1.48722893E-06
   15.4799995       1.55297630E-06
   15.6000004       1.62105687E-06
   15.7200003       1.69152690E-06
   15.8400002       1.76443984E-06
   15.9600000       1.83984616E-06
   16.0799999       1.91779304E-06
   16.2000008       1.99832584E-06
   16.3199997       2.08149027E-06
   16.4400005       2.16733361E-06
   16.5599995       2.25590725E-06
   16.6800003       2.34726599E-06
   16.7999992       2.44146759E-06
   16.9200001       2.53857093E-06
   17.0400009       2.63863308E-06
   17.1599998       2.74170861E-06
   17.2800007       2.84784596E-06
   17.3999996       2.95708719E-06
   17.5200005       3.06946708E-06
   17.6399994       3.18501384E-06
   17.7600002       3.30374837E-06
   17.8799992       3.42568433E-06
   18.0000000       3.55083080E-06
   18.1200008       3.67919051E-06
   18.2399998       3.81076234E-06
   18.3600006       3.94554354E-06
   18.4799995       4.08352980E-06
   18.6000004       4.22471658E-06
   18.7199993       4.36910068E-06
   18.8400002       4.51668211E-06
   18.9599991       4.66745814E-06
   19.0799999       4.82142832E-06
   19.2000008       4.97858900E-06
   19.3199997       5.13893247E-06
   19.4400005       5.30244506E-06
   19.5599995       5.46910769E-06
   19.6800003       5.63889216E-06
   19.7999992       5.81176255E-06
   19.9200001       5.98767247E-06
   20.0400009       6.16656325E-06
   20.1599998       6.34836852E-06
   20.2800007       6.53301231E-06
   20.3999996       6.72040960E-06
   20.5200005       6.91047217E-06
   20.6399994       7.10310269E-06
   20.7600002       7.29820022E-06
   20.8799992       7.49565470E-06
   21.0000000       7.69534563E-06
   21.1200008       7.89714250E-06
   21.2399998       8.10089841E-06
   21.3600006       8.30645786E-06
   21.4799995       8.51365439E-06
   21.6000004       8.72231249E-06
   21.7199993       8.93225206E-06
   21.8400002       9.14329212E-06
   21.9599991       9.35524258E-06
   22.0799999       9.56790700E-06
   22.2000008       9.78108528E-06
   22.3199997       9.99455824E-06
   22.4400005       1.02080985E-05
   22.5599995       1.04214614E-05
   22.6800003       1.06343887E-05
   22.7999992       1.08466102E-05
   22.9200001       1.10578467E-05
   23.0400009       1.12678117E-05
   23.1599998       1.14762142E-05
   23.2800007       1.16827487E-05
   23.3999996       1.18870985E-05
   23.5200005       1.20889290E-05
   23.6399994       1.22878882E-05
   23.7600002       1.24836042E-05
   23.8799992       1.26756895E-05
   24.0000000       1.28637394E-05
   24.1200008       1.30473354E-05
   24.2399998       1.32260502E-05
   24.3600006       1.33994381E-05
   24.4799995       1.35670498E-05
   24.6000004       1.37284187E-05
   24.7199993       1.38830683E-05
   24.8400002       1.40305083E-05
   24.9599991       1.41702385E-05
   25.0799999       1.43017523E-05
   25.2000008       1.44245332E-05
   25.3199997       1.45380573E-05
   25.4400005       1.46417979E-05
   25.5599995       1.47352148E-05
   25.6800003       1.48177587E-05
   25.7999992       1.48888648E-05
   25.9200001       1.49479511E-05
   26.0400009       1.49944190E-05
   26.1599998       1.50276528E-05
   26.2800007       1.50470232E-05
   26.3999996       1.50518899E-05
   26.5200005       1.50416035E-05
   26.6399994       1.50155074E-05
   26.7600002       1.49729358E-05
   26.8799992       1.49132075E-05
   27.0000000       1.48356366E-05
   27.1200008       1.47395240E-05
   27.2399998       1.46241628E-05
   27.3600006       1.44888354E-05
   27.4799995       1.43328207E-05
   27.6000004       1.41553901E-05
   27.7199993       1.39558078E-05
   27.8400002       1.37333282E-05
   27.9599991       1.34871889E-05
   28.0799999       1.32166133E-05
   28.2000008       1.29208129E-05
   28.3199997       1.25989873E-05
   28.4400005       1.22503361E-05
   28.5599995       1.18740536E-05
   28.6800003       1.14693394E-05
   28.7999992       1.10353894E-05
   28.9200001       1.05713980E-05
   29.0400009       1.00765465E-05
   29.1599998       9.55000451E-06
   29.2800007       8.99092902E-06
   29.3999996       8.39846234E-06
   29.5200005       7.77174137E-06
   29.6399994       7.10989434E-06
   29.7600002       6.41205224E-06
   29.8799992       5.67734833E-06
   30.0000000       4.90491811E-06
   30.1200008       4.09390623E-06
   30.2399998       3.24346570E-06
   30.3600006       2.35275888E-06
   30.4799995       1.42095746E-06
   30.6000004       4.47245242E-07
   30.7199993      -5.69183157E-07
   30.8400002      -1.62912318E-06
   30.9599991      -2.73336150E-06
   31.0799999      -3.88267790E-06
   31.2000008      -5.07784716E-06
   31.3199997      -6.31964485E-06
   31.4400005      -7.60884359E-06
   31.5599995      -8.94621917E-06
   31.6800003      -1.03325428E-05
   31.7999992      -1.17685850E-05
   31.9200001      -1.32551040E-05
   32.0400009      -1.47928458E-05
   32.1599998      -1.63825353E-05
   32.2799988      -1.80248680E-05
   32.4000015      -1.97205100E-05
   32.5200005      -2.14700904E-05
   32.6399994      -2.32742077E-05
   32.7599983      -2.51334259E-05
   32.8800011      -2.70482924E-05
   33.0000000      -2.90193329E-05
   33.1199989      -3.10470714E-05
   33.2400017      -3.31320261E-05
   33.3600006      -3.52747156E-05
   33.4799995      -3.74756382E-05
   33.5999985      -3.97352815E-05
   33.7200012      -4.20540891E-05
   33.8400002      -4.44324796E-05
   33.9599991      -4.68708131E-05
   34.0800018      -4.93693806E-05
   34.2000008      -5.19284331E-05
   34.3199997      -5.45481598E-05
   34.4399986      -5.72287026E-05
   34.5600014      -5.99701598E-05
   34.6800003      -6.27726040E-05
   34.7999992      -6.56360353E-05
   34.9199982      -6.85604609E-05
   35.0400009      -7.15458082E-05
   35.1599998      -7.45919897E-05
   35.2799988      -7.76988963E-05
   35.4000015      -8.08663826E-05
   35.5200005      -8.40942448E-05
   35.6399994      -8.73822501E-05
   35.7599983      -9.07300928E-05
   35.8800011      -9.41374019E-05
   36.0000000      -9.76036899E-05
   36.1199989      -1.01128418E-04
   36.2400017      -1.04710947E-04
   36.3600006      -1.08350578E-04
   36.4799995      -1.12046553E-04
   36.5999985      -1.15798073E-04
   36.7200012      -1.19604287E-04
   36.8400002      -1.23464284E-04
   36.9599991      -1.27377149E-04
   37.0800018      -1.31341803E-04
   37.2000008      -1.35357215E-04
   37.3199997      -1.39422147E-04
   37.4399986      -1.43535348E-04
   37.5600014      -1.47695406E-04
   37.6800003      -1.51900909E-04
   37.7999992      -1.56150316E-04
   37.9199982      -1.60442054E-04
   38.0400009      -1.64774465E-04
   38.1599998      -1.69145831E-04
   38.2799988      -1.73554348E-04
   38.4000015      -1.77998125E-04
   38.5200005      -1.82475225E-04
   38.6399994      -1.86983525E-04
   38.7599983      -1.91520900E-04
   38.8800011      -1.96085093E-04
   39.0000000      -2.00673792E-04
   39.1199989      -2.05284581E-04
   39.2400017      -2.09914971E-04
   39.3600006      -2.14562402E-04
   39.4799995      -2.19224181E-04
   39.5999985      -2.23897558E-04
   39.7200012      -2.28579709E-04
   39.8400002      -2.33267740E-04
   39.9599991      -2.37958680E-04
   40.0800018      -2.42649505E-04
   40.2000008      -2.47337040E-04
   40.3199997      -2.52018159E-04
   40.4399986      -2.56689586E-04
   40.5600014      -2.61347974E-04
   40.6800003      -2.65989889E-04
   40.7999992      -2.70611810E-04
   40.9199982      -2.75210099E-04
   41.0400009      -2.79781118E-04
   41.1599998      -2.84321082E-04
   41.2799988      -2.88826239E-04
   41.4000015      -2.93292571E-04
   41.5200005      -2.97716237E-04
   41.6399994      -3.02093220E-04
   41.7599983      -3.06419475E-04
   41.8800011      -3.10690899E-04
   42.0000000      -3.14903329E-04
   42.1199989      -3.19052546E-04
   42.2400017      -3.23134329E-04
   42.3600006      -3.27144342E-04
   42.4799995      -3.31078219E-04
   42.5999985      -3.34931508E-04
   42.7200012      -3.38699843E-04
   42.8400002      -3.42378713E-04
   42.9599991      -3.45963635E-04
   43.0800018      -3.49450158E-04
   43.2000008      -3.52833653E-04
   43.3199997      -3.56109580E-04
   43.4399986      -3.59273283E-04
   43.5600014      -3.62320192E-04
   43.6800003      -3.65245563E-04
   43.7999992      -3.68044799E-04
   43.9199982      -3.70713213E-04
   44.0400009      -3.73246265E-04
   44.1599998      -3.75639356E-04
   44.2799988      -3.77887976E-04
   44.4000015      -3.79987643E-04
   44.5200005      -3.81933874E-04
   44.6399994      -3.83722218E-04
   44.7599983      -3.85348190E-04
   44.8800011      -3.86807340E-04
   45.0000000      -3.88095155E-04
   45.1199989      -3.89207271E-04
   45.2400017      -3.90139292E-04
   45.3600006      -3.90887028E-04
   45.4799995      -3.91446258E-04
   45.5999985      -3.91812995E-04
   45.7200012      -3.91983311E-04
   45.8400002      -3.91953246E-04
   45.9599991      -3.91718961E-04
   46.0800018      -3.91276728E-04
   46.2000008      -3.90622823E-04
   46.3199997      -3.89753666E-04
   46.4399986      -3.88665823E-04
   46.5600014      -3.87355976E-04
   46.6800003      -3.85820866E-04
   46.7999992      -3.84057435E-04
   46.9199982      -3.82062688E-04
   47.0400009      -3.79833858E-04
   47.1599998      -3.77368211E-04
   47.2799988      -3.74663243E-04
   47.4000015      -3.71716538E-04
   47.5200005      -3.68525827E-04
   47.6399994      -3.65089072E-04
   47.7599983      -3.61404382E-04
   47.8800011      -3.57470009E-04
   48.0000000      -3.53284500E-04
   48.1199989      -3.48846486E-04
   48.2400017      -3.44154803E-04
   48.3600006      -3.39208491E-04
   48.4799995      -3.34006763E-04
   48.5999985      -3.28549097E-04
   48.7200012      -3.22835054E-04
   48.8400002      -3.16864520E-04
   48.9599991      -3.10637522E-04
   49.0800018      -3.04154324E-04
   49.2000008      -2.97415565E-04
   49.3199997      -2.90421944E-04
   49.4399986      -2.83174537E-04
   49.5600014      -2.75674509E-04
   49.6800003      -2.67923402E-04
   49.7999992      -2.59922876E-04
   49.9199982      -2.51674908E-04
   50.0400009      -2.43181697E-04
   50.1599998      -2.34445644E-04
   50.2799988      -2.25469397E-04
   50.4000015      -2.16255910E-04
   50.5200005      -2.06808370E-04
   50.6399994      -1.97130255E-04
   50.7599983      -1.87225276E-04
   50.8800011      -1.77097449E-04
   51.0000000      -1.66751051E-04
   51.1199989      -1.56190537E-04
   51.2400017      -1.45420709E-04
   51.3600006      -1.34446498E-04
   51.4799995      -1.23273159E-04
   51.5999985      -1.11906178E-04
   51.7200012      -1.00351324E-04
   51.8400002      -8.86146081E-05
   51.9599991      -7.67023157E-05
   52.0800018      -6.46209883E-05
   52.2000008      -5.23774070E-05
   52.3199997      -3.99786040E-05
   52.4399986      -2.74318536E-05
   52.5600014      -1.47446954E-05
   52.6800003      -1.92490438E-06
   52.7999992       1.10195224E-05
   52.9199982       2.40803765E-05
   53.0400009       3.72492432E-05
   53.1599998       5.05175158E-05
   53.2799988       6.38763740E-05
   53.4000015       7.73167922E-05
   53.5200005       9.08295769E-05
   53.6399994       1.04405299E-04
   53.7599983       1.18034390E-04
   53.8800011       1.31707129E-04
   54.0000000       1.45413593E-04
   54.1199989       1.59143776E-04
   54.2400017       1.72887492E-04
   54.3600006       1.86634454E-04
   54.4799995       2.00374256E-04
   54.5999985       2.14096304E-04
   54.7200012       2.27789962E-04
   54.8400002       2.41444461E-04
   54.9599991       2.55048944E-04
   55.0800018       2.68592557E-04
   55.2000008       2.82064342E-04
   55.3199997       2.95453356E-04
   55.4399986       3.08748597E-04
   55.5600014       3.21939035E-04
   55.6800003       3.35013669E-04
   55.7999992       3.47961381E-04
   55.9199982       3.60771286E-04
   56.0400009       3.73432325E-04
   56.1599998       3.85933643E-04
   56.2799988       3.98264412E-04
   56.4000015       4.10413806E-04
   56.5200005       4.22371202E-04
   56.6399994       4.34125948E-04
   56.7599983       4.45667596E-04
   56.8800011       4.56985785E-04
   57.0000000       4.68070415E-04
   57.1199989       4.78911505E-04
   57.2400017       4.89499245E-04
   57.3600006       4.99824120E-04
   57.4799995       5.09876700E-04
   57.5999985       5.19647903E-04
   57.7200012       5.29128651E-04
   57.8400002       5.38310269E-04
   57.9599991       5.47184260E-04
   58.0800018       5.55742590E-04
   58.2000008       5.63977286E-04
   58.3199997       5.71880839E-04
   58.4399986       5.79446089E-04
   58.5600014       5.86666283E-04
   58.6800003       5.93534962E-04
   58.7999992       6.00045838E-04
   58.9199982       6.06193149E-04
   59.0400009       6.11971249E-04
   59.1599998       6.17375015E-04
   59.2799988       6.22399675E-04
   59.4000015       6.27040979E-04
   59.5200005       6.31295028E-04
   59.6399994       6.35158445E-04
   59.7599983       6.38628320E-04
   59.8800011       6.41702150E-04
   60.0000000       6.44377840E-04
   60.1199989       6.46653760E-04
   60.2400017       6.48528803E-04
   60.3600006       6.50002272E-04
   60.4799995       6.51073700E-04
   60.5999985       6.51743321E-04
   60.7200012       6.52011891E-04
   60.8400002       6.51880458E-04
   60.9599991       6.51350652E-04
   61.0800018       6.50424568E-04
   61.2000008       6.49104710E-04
   61.3199997       6.47393928E-04
   61.4399986       6.45295775E-04
   61.5600014       6.42814091E-04
   61.6800003       6.39953243E-04
   61.7999992       6.36718294E-04
   61.9199982       6.33114541E-04
   62.0400009       6.29147748E-04
   62.1599998       6.24824024E-04
   62.2799988       6.20150007E-04
   62.4000015       6.15132682E-04
   62.5200005       6.09779439E-04
   62.6399994       6.04097906E-04
   62.7599983       5.98096405E-04
   62.8800011       5.91783493E-04
   63.0000000       5.85168367E-04
   63.1199989       5.78260282E-04
   63.2400017       5.71068958E-04
   63.3600006       5.63604350E-04
   63.4799995       5.55876642E-04
   63.5999985       5.47896198E-04
   63.7200012       5.39673842E-04
   63.8400002       5.31220692E-04
   63.9599991       5.22548042E-04
   64.0800018       5.13667648E-04
   64.1999969       5.04591211E-04
   64.3199997       4.95330722E-04
   64.4400024       4.85898316E-04
   64.5599976       4.76306159E-04
   64.6800003       4.66566562E-04
   64.8000031       4.56692011E-04
   64.9199982       4.46695136E-04
   65.0400009       4.36588627E-04
   65.1600037       4.26385202E-04
   65.2799988       4.16097668E-04
   65.4000015       4.05738712E-04
   65.5199966       3.95321025E-04
   65.6399994       3.84857150E-04
   65.7600021       3.74359632E-04
   65.8799973       3.63841013E-04
   66.0000000       3.53313750E-04
   66.1200027       3.42790270E-04
   66.2399979       3.32282914E-04
   66.3600006       3.21803876E-04
   66.4800034       3.11365031E-04
   66.5999985       3.00978107E-04
   66.7200012       2.90654571E-04
   66.8399963       2.80405657E-04
   66.9599991       2.70242395E-04
   67.0800018       2.60175555E-04
   67.1999969       2.50215788E-04
   67.3199997       2.40373236E-04
   67.4400024       2.30657912E-04
   67.5599976       2.21079361E-04
   67.6800003       2.11646824E-04
   67.8000031       2.02369192E-04
   67.9199982       1.93254949E-04
   68.0400009       1.84312288E-04
   68.1600037       1.75549038E-04
   68.2799988       1.66972721E-04
   68.4000015       1.58590439E-04
   68.5199966       1.50408887E-04
   68.6399994       1.42434321E-04
   68.7600021       1.34672518E-04
   68.8799973       1.27128806E-04
   69.0000000       1.19808086E-04
   69.1200027       1.12714806E-04
   69.2399979       1.05852996E-04
   69.3600006       9.92262794E-05
   69.4800034       9.28378504E-05
   69.5999985       8.66904884E-05
   69.7200012       8.07865508E-05
   69.8399963       7.51279513E-05
   69.9599991       6.97161595E-05
   70.0800018       6.45522232E-05
   70.1999969       5.96367281E-05
   70.3199997       5.49698598E-05
   70.4400024       5.05513963E-05
   70.5599976       4.63807010E-05
   70.6800003       4.24567406E-05
   70.8000031       3.87780783E-05
   70.9199982       3.53428732E-05
   71.0400009       3.21489206E-05
   71.1600037       2.91936376E-05
   71.2799988       2.64741102E-05
   71.4000015       2.39870915E-05
   71.5199966       2.17290235E-05
   71.6399994       1.96960300E-05
   71.7600021       1.78839236E-05
   71.8799973       1.62882043E-05
   72.0000000       1.49040816E-05
   72.1200027       1.37264797E-05
   72.2399979       1.27500643E-05
   72.3600006       1.19692631E-05
   72.4800034       1.13782817E-05
   72.5999985       1.09711254E-05
   72.7200012       1.07416035E-05