  -30.0000000       0.00000000    
  -29.8799992       0.00000000    
  -29.7600002       0.00000000    
  -29.6399994       0.00000000    
  -29.5200005       0.00000000    
  -29.3999996       0.00000000    
  -29.2800007       0.00000000    
  -29.1599998       0.00000000    
  -29.0400009       0.00000000    
  -28.9200001       0.00000000    
  -28.7999992      -1.54142831E-44
  -28.6800003       7.84727140E-44
  -28.5599995      -2.31048893E-40
  -28.4400005      -3.71260295E-39
  -28.3199997      -2.65213363E-38
  -28.2000008      -9.71684009E-38
  -28.0799999      -6.21634832E-38
  -27.9599991       1.38515981E-36
  -27.8400002       8.97574095E-36
  -27.7199993       3.15854557E-35
  -27.6000004       6.83717048E-35
  -27.4799995       5.83079349E-35
  -27.3600006      -1.95082425E-34
  -27.2399998      -9.68697068E-34
  -27.1200008      -2.06480817E-33
  -27.0000000      -1.52216352E-33
  -26.8799992       5.24644875E-33
  -26.7600002       2.16275091E-32
  -26.6399994       3.49383722E-32
  -26.5200005      -8.18179406E-33
  -26.3999996      -2.06135348E-31
  -26.2800007      -6.11533915E-31
  -26.1599998      -9.61694592E-31
  -26.0400009      -2.87701372E-31
  -25.9200001       3.15365593E-30
  -25.7999992       1.06789182E-29
  -25.6800003       1.97636298E-29
  -25.5599995       1.90415701E-29
  -25.4400005      -1.38237609E-29
  -25.3199997      -1.02264136E-28
  -25.2000008      -2.39473524E-28
  -25.0799999      -3.38300837E-28
  -24.9599991      -1.94597599E-28
  -24.8400002       4.66284780E-28
  -24.7199993       1.77849712E-27
  -24.6000004       3.34562959E-27
  -24.4799995       3.83927894E-27
  -24.3600006       1.01075047E-27
  -24.2399998      -7.30418869E-27
  -24.1200008      -2.08492347E-26
  -24.0000000      -3.38391746E-26
  -23.8799992      -3.31096755E-26
  -23.7600002      -8.66156178E-28
  -23.6399994       7.49004448E-26
  -23.5200005       1.82654222E-25
  -23.3999996       2.69407857E-25
  -23.2800007       2.37880217E-25
  -23.1599998      -2.26292886E-26
  -23.0400009      -5.61604870E-25
  -22.9200001      -1.26414881E-24
  -22.7999992      -1.77179599E-24
  -22.6800003      -1.51068116E-24
  -22.5599995       9.45937841E-26
  -22.4400005       3.21075973E-24
  -22.3199997       7.11094129E-24
  -22.2000008       9.88940959E-24
  -22.0799999       8.73222795E-24
  -21.9599991       1.00191863E-24
  -21.8400002      -1.39457213E-23
  -21.7199993      -3.28201004E-23
  -21.6000004      -4.74354653E-23
  -21.4799995      -4.59827369E-23
  -21.3600006      -1.72766754E-23
  -21.2399998       4.25216949E-23
  -21.1200008       1.22885760E-22
  -21.0000000       1.95208692E-22
  -20.8799992       2.16278372E-22
  -20.7600002       1.41272240E-22
  -20.6399994      -5.48719718E-23
  -20.5200005      -3.53458658E-22
  -20.3999996      -6.75278263E-22
  -20.2800007      -8.82590505E-22
  -20.1599998      -8.08768018E-22
  -20.0400009      -3.17019948E-22
  -19.9200001       6.21931930E-22
  -19.7999992       1.85632416E-21
  -19.6800003       3.01714694E-21
  -19.5599995       3.55444719E-21
  -19.4400005       2.87028239E-21
  -19.3199997       5.45799305E-22
  -19.2000008      -3.38035233E-21
  -19.0799999      -8.17006856E-21
  -18.9599991      -1.23017679E-20
  -18.8400002      -1.36674002E-20
  -18.7199993      -1.01244944E-20
  -18.6000004      -3.69788912E-22
  -18.4799995       1.50516353E-20
  -18.3600006       3.29465004E-20
  -18.2399998       4.73298982E-20
  -18.1200008       5.03592953E-20
  -18.0000000       3.45529627E-20
  -17.8799992      -3.91753586E-21
  -17.7600002      -6.16368916E-20
  -17.6399994      -1.25395902E-19
  -17.5200005      -1.72342434E-19
  -17.3999996      -1.74289075E-19
  -17.2800007      -1.06669864E-19
  -17.1599998       3.91274847E-20
  -17.0400009       2.43568424E-19
  -16.9200001       4.52391281E-19
  -16.7999992       5.81672528E-19
  -16.6800003       5.38593427E-19
  -16.5599995       2.56922608E-19
  -16.4400005      -2.61168966E-19
  -16.3199997      -9.12733732E-19
  -16.2000008      -1.49059549E-18
  -16.0799999      -1.72446726E-18
  -15.9600000      -1.36898981E-18
  -15.8400002      -3.20159481E-19
  -15.7200003       1.28010067E-18
  -15.6000004       3.00361978E-18
  -15.4799995       4.20466204E-18
  -15.3599997       4.21015038E-18
  -15.2399998       2.59285243E-18
  -15.1199999      -5.63727672E-19
  -15.0000000      -4.52904671E-18
  -14.8800001      -8.02104632E-18
  -14.7600002      -9.56539335E-18
  -14.6400003      -8.04088129E-18
  -14.5200005      -3.22623745E-18
  -14.3999996       3.88924359E-18
  -14.2799997       1.12257243E-17
  -14.1599998       1.62123992E-17
  -14.0400000       1.67098028E-17
  -13.9200001       1.19157592E-17
  -13.8000002       2.85209580E-18
  -13.6800003      -7.85557711E-18
  -13.5600004      -1.69128938E-17
  -13.4399996      -2.16702279E-17
  -13.3199997      -2.12295193E-17
  -13.1999998      -1.67563796E-17
  -13.0799999      -1.07134654E-17
  -12.9600000      -5.25975986E-18
  -12.8400002      -5.90880030E-19
  -12.7200003       5.75611496E-18
  -12.6000004       1.78574497E-17
  -12.4799995       3.85994436E-17
  -12.3599997       6.61209933E-17
  -12.2399998       9.13320952E-17
  -12.1199999       9.84766460E-17
  -12.0000000       6.98618878E-17
  -11.8800001      -5.84817438E-18
  -11.7600002      -1.24416421E-16
  -11.6400003      -2.60002163E-16
  -11.5200005      -3.66451361E-16
  -11.3999996      -3.88168995E-16
  -11.2799997      -2.79340931E-16
  -11.1599998      -2.62369183E-17
  -11.0400000       3.35647923E-16
  -10.9200001       7.18199554E-16
  -10.8000002       9.96499322E-16
  -10.6800003       1.04312531E-15
  -10.5600004       7.72768963E-16
  -10.4399996       1.83019706E-16
  -10.3199997      -6.24601354E-16
  -10.1999998      -1.45521266E-15
  -10.0799999      -2.06514446E-15
  -9.96000004      -2.23077752E-15
  -9.84000015      -1.82144800E-15
  -9.72000027      -8.51878717E-16
  -9.60000038       5.05921503E-16
  -9.47999954       1.95861694E-15
  -9.35999966       3.16580533E-15
  -9.23999977       3.82854191E-15
  -9.11999989       3.76240981E-15
  -9.00000000       2.93183408E-15
  -8.88000011       1.43908388E-15
  -8.76000023      -5.18505819E-16
  -8.64000034      -2.69572492E-15
  -8.52000046      -4.82407964E-15
  -8.39999962      -6.60327870E-15
  -8.27999973      -7.67531112E-15
  -8.15999985      -7.61962718E-15
  -8.03999996      -6.01278916E-15
  -7.92000008      -2.57412635E-15
  -7.80000019       2.62603698E-15
  -7.67999983       8.97024662E-15
  -7.55999994       1.52167809E-14
  -7.44000006       1.96383793E-14
  -7.32000017       2.04126809E-14
  -7.19999981       1.62012720E-14
  -7.07999992       6.75250769E-15
  -6.96000004      -6.69675598E-15
  -6.84000015      -2.14266742E-14
  -6.71999979      -3.37456808E-14
  -6.59999990      -3.99353944E-14
  -6.48000002      -3.73809158E-14
  -6.36000013      -2.55267727E-14
  -6.23999977      -6.30625855E-15
  -6.11999989       1.61673433E-14
  -6.00000000       3.66221742E-14
  -5.88000011       5.00834454E-14
  -5.76000023       5.33099227E-14
  -5.63999987       4.57341684E-14
  -5.51999998       2.95766931E-14
  -5.40000010       9.07920217E-15
  -5.28000021      -1.08907702E-14
  -5.15999985      -2.63842530E-14
  -5.03999996      -3.55236267E-14
  -4.92000008      -3.88562168E-14
  -4.80000019      -3.87841343E-14
  -4.67999983      -3.82791570E-14
  -4.55999994      -3.93559154E-14
  -4.44000006      -4.18774885E-14
  -4.32000017      -4.31688783E-14
  -4.19999981      -3.86496933E-14
  -4.07999992      -2.33590325E-14
  -3.96000004       6.05517977E-15
  -3.83999991       4.94779490E-14
  -3.72000003       1.02185330E-13
  -3.59999990       1.54829911E-13
  -3.48000002       1.94688083E-13
  -3.35999990       2.08007643E-13
  -3.24000001       1.83050650E-13
  -3.11999989       1.13275491E-13
  -3.00000000       4.84209296E-17
  -2.88000011      -1.45698598E-13
  -2.75999999      -3.03359415E-13
  -2.64000010      -4.44439787E-13
  -2.51999998      -5.36354923E-13
  -2.40000010      -5.48024679E-13
  -2.27999997      -4.56630176E-13
  -2.16000009      -2.54438425E-13
  -2.03999996       4.57679786E-14
  -1.91999996       4.08249335E-13
  -1.79999995       7.76199417E-13
  -1.67999995       1.07863317E-12
  -1.55999994       1.24190155E-12
  -1.44000006       1.20427615E-12
  -1.32000005       9.31014380E-13
  -1.20000005       4.26727501E-13
  -1.08000004      -2.58047164E-13
 -0.959999979      -1.02838365E-12
 -0.839999974      -1.75556368E-12
 -0.720000029      -2.29598805E-12
 -0.600000024      -2.51596769E-12
 -0.479999989      -2.31856006E-12
 -0.360000014      -1.66773279E-12
 -0.239999995      -6.04959388E-13
 -0.119999997       7.46052471E-13
  -1.11022302E-15   2.18931774E-12
  0.119999997       3.48175330E-12
  0.239999995       4.37119872E-12
  0.360000014       4.64181471E-12
  0.479999989       4.15883647E-12
  0.600000024       2.90343140E-12
  0.720000029       9.89210992E-13
  0.839999974      -1.34500690E-12
  0.959999979      -3.76672782E-12
   1.08000004      -5.90059902E-12
   1.20000005      -7.38883607E-12
   1.32000005      -7.94925670E-12
   1.44000006      -7.41977833E-12
   1.55999994      -5.78209095E-12
   1.67999995      -3.16275261E-12
   1.79999995       1.84693379E-13
   1.91999996       3.90968855E-12
   2.03999996       7.59960844E-12
   2.16000009       1.08151170E-11
   2.27999997       1.31251199E-11
   2.40000010       1.41435127E-11
   2.51999998       1.35702135E-11
   2.64000010       1.12362368E-11
   2.75999999       7.14764055E-12
   2.88000011       1.51851578E-12
   3.00000000      -5.21885399E-12
   3.11999989      -1.24360253E-11
   3.24000001      -1.93652074E-11
   3.35999990      -2.51842384E-11
   3.48000002      -2.91147523E-11
   3.59999990      -3.05142647E-11
   3.72000003      -2.89442723E-11
   3.83999991      -2.42031117E-11
   3.96000004      -1.63217877E-11
   4.07999992      -5.52931312E-12
   4.19999981       7.80114688E-12
   4.32000017       2.32146247E-11
   4.44000006       4.02385902E-11
   4.55999994       5.84474483E-11
   4.67999983       7.75279563E-11
   4.80000019       9.73440217E-11
   4.92000008       1.17993657E-10
   5.03999996       1.39844761E-10
   5.15999985       1.63533714E-10
   5.28000021       1.89916208E-10
   5.40000010       2.19971000E-10
   5.51999998       2.54673588E-10
   5.63999987       2.94869906E-10
   5.76000023       3.41184553E-10
   5.88000011       3.93990174E-10
   6.00000000       4.53444504E-10
   6.11999989       5.19579102E-10
   6.23999977       5.92401184E-10
   6.36000013       6.71966593E-10
   6.48000002       7.58390406E-10
   6.59999990       8.51788973E-10
   6.71999979       9.52179113E-10
   6.84000015       1.05938414E-09
   6.96000004       1.17300658E-09
   7.07999992       1.29250521E-09
   7.19999981       1.41738810E-09
   7.32000017       1.54748003E-09
   7.44000006       1.68319336E-09
   7.55999994       1.82571658E-09
   7.67999983       1.97704719E-09
   7.80000019       2.13984075E-09
   7.92000008       2.31709829E-09
   8.03999996       2.51176524E-09
   8.15999985       2.72634249E-09
   8.27999973       2.96260749E-09
   8.39999962       3.22151195E-09
   8.52000046       3.50326834E-09
   8.64000034       3.80759069E-09
   8.76000023       4.13401313E-09
   8.88000011       4.48220350E-09
   9.00000000       4.85219775E-09
   9.11999989       5.24453148E-09
   9.23999977       5.66026825E-09
   9.35999966       6.10096640E-09
   9.47999954       6.56863719E-09
   9.60000038       7.06572489E-09
   9.72000027       7.59512275E-09
   9.84000015       8.16019519E-09
   9.96000004       8.76478001E-09
   10.0799999       9.41310585E-09
   10.1999998       1.01096251E-08
   10.3199997       1.08587574E-08
   10.4399996       1.16646026E-08
   10.5600004       1.25307036E-08
   10.6800003       1.34599238E-08
   10.8000002       1.44545069E-08
   10.9200001       1.55162994E-08
   11.0400000       1.66471228E-08
   11.1599998       1.78491923E-08
   11.2799997       1.91254852E-08
   11.3999996       2.04799910E-08
   11.5200005       2.19178098E-08
   11.6400003       2.34450859E-08
   11.7600002       2.50688483E-08
   11.8800001       2.67968296E-08
   12.0000000       2.86373059E-08
   12.1199999       3.05989971E-08
   12.2399998       3.26909699E-08
   12.3599997       3.49225822E-08
   12.4799995       3.73033160E-08
   12.6000004       3.98425790E-08
   12.7200003       4.25494271E-08
   12.8400002       4.54324116E-08
   12.9600000       4.84994978E-08
   13.0799999       5.17582244E-08
   13.1999998       5.52160770E-08
   13.3199997       5.88810138E-08
   13.4399996       6.27619698E-08
   13.5600004       6.68692763E-08
   13.6800003       7.12146928E-08
   13.8000002       7.58112435E-08
   13.9200001       8.06727627E-08
   14.0400000       8.58134825E-08
   14.1599998       9.12476636E-08
   14.2799997       9.69896377E-08
   14.3999996       1.03054177E-07
   14.5200005       1.09457062E-07
   14.6400003       1.16215723E-07
   14.7600002       1.23349579E-07
   14.8800001       1.30879911E-07
   15.0000000       1.38829364E-07
   15.1199999       1.47220902E-07
   15.2399998       1.56076837E-07
   15.3599997       1.65418129E-07
   15.4799995       1.75264347E-07
   15.6000004       1.85634264E-07
   15.7200003       1.96547035E-07
   15.8400002       2.08023721E-07
   15.9600000       2.20088353E-07
   16.0799999       2.32768500E-07
   16.2000008       2.46094913E-07
   16.3199997       2.60100393E-07
   16.4400005       2.74818149E-07
   16.5599995       2.90280383E-07
   16.6800003       3.06517165E-07
   16.7999992       3.23556804E-07
   16.9200001       3.41426585E-07
   17.0400009       3.60154559E-07
   17.1599998       3.79771421E-07
   17.2800007       4.00311677E-07
   17.3999996       4.21814264E-07
   17.5200005       4.44321557E-07
   17.6399994       4.67877840E-07
   17.7600002       4.92527249E-07
   17.8799992       5.18311936E-07
   18.0000000       5.45271632E-07
   18.1200008       5.73443913E-07
   18.2399998       6.02865953E-07
   18.3600006       6.33576690E-07
   18.4799995       6.65618984E-07
   18.6000004       6.99040640E-07
   18.7199993       7.33894410E-07
   18.8400002       7.70236397E-07
   18.9599991       8.08123389E-07
   19.0799999       8.47610579E-07
   19.2000008       8.88749526E-07
   19.3199997       9.31587692E-07
   19.4400005       9.76169076E-07
   19.5599995       1.02253728E-06
   19.6800003       1.07073708E-06
   19.7999992       1.12081784E-06
   19.9200001       1.17283423E-06
   20.0400009       1.22684548E-06
   20.1599998       1.28291401E-06
   20.2800007       1.34110257E-06
   20.3999996       1.40147176E-06
   20.5200005       1.46407876E-06
   20.6399994       1.52897712E-06
   20.7600002       1.59621834E-06
   20.8799992       1.66585369E-06
   21.0000000       1.73793671E-06
   21.1200008       1.81252415E-06
   21.2399998       1.88967510E-06
   21.3600006       1.96945075E-06
   21.4799995       2.05191122E-06
   21.6000004       2.13711360E-06
   21.7199993       2.22511062E-06
   21.8400002       2.31595095E-06
   21.9599991       2.40968120E-06
   22.0799999       2.50634730E-06
   22.2000008       2.60599813E-06
   22.3199997       2.70868532E-06
   22.4400005       2.81446341E-06
   22.5599995       2.92338882E-06
   22.6800003       3.03551747E-06
   22.7999992       3.15090074E-06
   22.9200001       3.26958525E-06
   23.0400009       3.39161193E-06
   23.1599998       3.51701601E-06
   23.2800007       3.64582888E-06
   23.3999996       3.77807987E-06
   23.5200005       3.91379763E-06
   23.6399994       4.05300989E-06
   23.7600002       4.19574280E-06
   23.8799992       4.34201957E-06
   24.0000000       4.49186109E-06
   24.1200008       4.64528239E-06
   24.2399998       4.80229482E-06
   24.3600006       4.96290431E-06
   24.4799995       5.12711313E-06
   24.6000004       5.29491945E-06
   24.7199993       5.46631918E-06
   24.8400002       5.64130323E-06
   24.9599991       5.81986023E-06
   25.0799999       6.00197427E-06
   25.2000008       6.18762488E-06
   25.3199997       6.37678841E-06
   25.4400005       6.56943621E-06
   25.5599995       6.76553691E-06
   25.6800003       6.96505367E-06
   25.7999992       7.16794511E-06
   25.9200001       7.37416394E-06
   26.0400009       7.58365377E-06
   26.1599998       7.79634865E-06
   26.2800007       8.01217448E-06
   26.3999996       8.23104892E-06
   26.5200005       8.45288014E-06
   26.6399994       8.67757262E-06
   26.7600002       8.90502815E-06
   26.8799992       9.13514123E-06
   27.0000000       9.36780361E-06
   27.1200008       9.60290254E-06
   27.2399998       9.84031794E-06
   27.3600006       1.00799170E-05
   27.4799995       1.03215607E-05
   27.6000004       1.05650897E-05
   27.7199993       1.08103404E-05
   27.8400002       1.10571327E-05
   27.9599991       1.13052802E-05
   28.0799999       1.15545909E-05
   28.2000008       1.18048683E-05
   28.3199997       1.20559134E-05
   28.4400005       1.23075215E-05
   28.5599995       1.25594852E-05
   28.6800003       1.28115908E-05
   28.7999992       1.30636199E-05
   28.9200001       1.33153417E-05
   29.0400009       1.35665168E-05
   29.1599998       1.38168989E-05
   29.2800007       1.40662305E-05
   29.3999996       1.43142452E-05
   29.5200005       1.45606691E-05
   29.6399994       1.48052168E-05
   29.7600002       1.50475944E-05
   29.8799992       1.52875018E-05
   30.0000000       1.55246289E-05
   30.1200008       1.57586601E-05
   30.2399998       1.59892643E-05
   30.3600006       1.62161105E-05
   30.4799995       1.64388512E-05
   30.6000004       1.66571317E-05
   30.7199993       1.68705865E-05
   30.8400002       1.70788426E-05
   30.9599991       1.72815162E-05
   31.0799999       1.74782181E-05
   31.2000008       1.76685553E-05
   31.3199997       1.78521223E-05
   31.4400005       1.80285151E-05
   31.5599995       1.81973210E-05
   31.6800003       1.83581269E-05
   31.7999992       1.85105164E-05
   31.9200001       1.86540674E-05
   32.0400009       1.87883506E-05
   32.1599998       1.89129387E-05
   32.2799988       1.90273913E-05
   32.4000015       1.91312611E-05
   32.5200005       1.92240896E-05
   32.6399994       1.93054129E-05
   32.7599983       1.93747583E-05
   32.8800011       1.94316472E-05
   33.0000000       1.94755939E-05
   33.1199989       1.95061184E-05
   33.2400017       1.95227367E-05
   33.3600006       1.95249686E-05
   33.4799995       1.95123412E-05
   33.5999985       1.94843669E-05
   33.7200012       1.94405675E-05
   33.8400002       1.93804481E-05
   33.9599991       1.93034957E-05
   34.0800018       1.92091920E-05
   34.2000008       1.90970077E-05
   34.3199997       1.89664097E-05
   34.4399986       1.88168724E-05
   34.5600014       1.86478701E-05
   34.6800003       1.84588953E-05
   34.7999992       1.82494368E-05
   34.9199982       1.80189945E-05
   35.0400009       1.77670609E-05
   35.1599998       1.74931320E-05
   35.2799988       1.71966985E-05
   35.4000015       1.68772513E-05
   35.5200005       1.65342844E-05
   35.6399994       1.61672942E-05
   35.7599983       1.57757750E-05
   35.8800011       1.53592318E-05
   36.0000000       1.49171683E-05
   36.1199989       1.44490859E-05
   36.2400017       1.39544854E-05
   36.3600006       1.34328648E-05
   36.4799995       1.28837228E-05
   36.5999985       1.23065593E-05
   36.7200012       1.17008785E-05
   36.8400002       1.10661922E-05
   36.9599991       1.04020228E-05
   37.0800018       9.70789915E-06
   37.2000008       8.98335929E-06
   37.3199997       8.22794664E-06
   37.4399986       7.44121235E-06
   37.5600014       6.62271168E-06
   37.6800003       5.77200353E-06
   37.7999992       4.88864862E-06
   37.9199982       3.97221038E-06
   38.0400009       3.02225112E-06
   38.1599998       2.03833565E-06
   38.2799988       1.02002878E-06
   38.4000015      -3.31000365E-08
   38.5200005      -1.12147518E-06
   38.6399994      -2.24550968E-06
   38.7599983      -3.40560086E-06
   38.8800011      -4.60212914E-06
   39.0000000      -5.83545580E-06
   39.1199989      -7.10592758E-06
   39.2400017      -8.41387737E-06
   39.3600006      -9.75962666E-06
   39.4799995      -1.11434956E-05
   39.5999985      -1.25658034E-05
   39.7200012      -1.40268667E-05
   39.8400002      -1.55270009E-05
   39.9599991      -1.70665098E-05
   40.0800018      -1.86456873E-05
   40.2000008      -2.02648062E-05
   40.3199997      -2.19241228E-05
   40.4399986      -2.36238593E-05
   40.5600014      -2.53642156E-05
   40.6800003      -2.71453664E-05
   40.7999992      -2.89674645E-05
   40.9199982      -3.08306335E-05
   41.0400009      -3.27349844E-05
   41.1599998      -3.46806155E-05
   41.2799988      -3.66676213E-05
   41.4000015      -3.86960673E-05
   41.5200005      -4.07660336E-05
   41.6399994      -4.28775929E-05
   41.7599983      -4.50307962E-05
   41.8800011      -4.72256797E-05
   42.0000000      -4.94622691E-05
   42.1199989      -5.17405570E-05
   42.2400017      -5.40605033E-05
   42.3600006      -5.64220172E-05
   42.4799995      -5.88249895E-05
   42.5999985      -6.12692675E-05
   42.7200012      -6.37546837E-05
   42.8400002      -6.62810417E-05
   42.9599991      -6.88481305E-05
   43.0800018      -7.14557245E-05
   43.2000008      -7.41035619E-05
   43.3199997      -7.67914025E-05
   43.4399986      -7.95189626E-05
   43.5600014      -8.22859292E-05
   43.6800003      -8.50919823E-05
   43.7999992      -8.79367653E-05
   43.9199982      -9.08198854E-05
   44.0400009      -9.37408986E-05
   44.1599998      -9.66993248E-05
   44.2799988      -9.96946110E-05
   44.4000015      -1.02726168E-04
   44.5200005      -1.05793348E-04
   44.6399994      -1.08895460E-04
   44.7599983      -1.12031783E-04
   44.8800011      -1.15201605E-04
   45.0000000      -1.18404176E-04
   45.1199989      -1.21638732E-04
   45.2400017      -1.24904502E-04
   45.3600006      -1.28200714E-04
   45.4799995      -1.31526540E-04
   45.5999985      -1.34881091E-04
   45.7200012      -1.38263407E-04
   45.8400002      -1.41672499E-04
   45.9599991      -1.45107289E-04
   46.0800018      -1.48566643E-04
   46.2000008      -1.52049382E-04
   46.3199997      -1.55554284E-04
   46.4399986      -1.59080111E-04
   46.5600014      -1.62625598E-04
   46.6800003      -1.66189406E-04
   46.7999992      -1.69770239E-04
   46.9199982      -1.73366730E-04
   47.0400009      -1.76977497E-04
   47.1599998      -1.80601084E-04
   47.2799988      -1.84235978E-04
   47.4000015      -1.87880636E-04
   47.5200005      -1.91533400E-04
   47.6399994      -1.95192508E-04
   47.7599983      -1.98856258E-04
   47.8800011      -2.02522831E-04
   48.0000000      -2.06190423E-04
   48.1199989      -2.09857171E-04
   48.2400017      -2.13521183E-04
   48.3600006      -2.17180554E-04
   48.4799995      -2.20833332E-04
   48.5999985      -2.24477510E-04
   48.7200012      -2.28111006E-04
   48.8400002      -2.31731668E-04
   48.9599991      -2.35337342E-04
   49.0800018      -2.38925772E-04
   49.2000008      -2.42494658E-04
   49.3199997      -2.46041629E-04
   49.4399986      -2.49564357E-04
   49.5600014      -2.53060425E-04
   49.6800003      -2.56527361E-04
   49.7999992      -2.59962719E-04
   49.9199982      -2.63363996E-04
   50.0400009      -2.66728573E-04
   50.1599998      -2.70053890E-04
   50.2799988      -2.73337238E-04
   50.4000015      -2.76575971E-04
   50.5200005      -2.79767351E-04
   50.6399994      -2.82908615E-04
   50.7599983      -2.85996939E-04
   50.8800011      -2.89029529E-04
   51.0000000      -2.92003591E-04
   51.1199989      -2.94916244E-04
   51.2400017      -2.97764549E-04
   51.3600006      -3.00545536E-04
   51.4799995      -3.03256180E-04
   51.5999985      -3.05893511E-04
   51.7200012      -3.08454415E-04
   51.8400002      -3.10935953E-04
   51.9599991      -3.13334953E-04
   52.0800018      -3.15648387E-04
   52.2000008      -3.17873113E-04
   52.3199997      -3.20005987E-04
   52.4399986      -3.22043896E-04
   52.5600014      -3.23983637E-04
   52.6800003      -3.25821951E-04
   52.7999992      -3.27555783E-04
   52.9199982      -3.29181959E-04
   53.0400009      -3.30697338E-04
   53.1599998      -3.32098774E-04
   53.2799988      -3.33383126E-04
   53.4000015      -3.34547251E-04
   53.5200005      -3.35587945E-04
   53.6399994      -3.36502184E-04
   53.7599983      -3.37286794E-04
   53.8800011      -3.37938662E-04
   54.0000000      -3.38454702E-04
   54.1199989      -3.38831829E-04
   54.2400017      -3.39067017E-04
   54.3600006      -3.39157210E-04
   54.4799995      -3.39099468E-04
   54.5999985      -3.38890823E-04
   54.7200012      -3.38528480E-04
   54.8400002      -3.38009646E-04
   54.9599991      -3.37331556E-04
   55.0800018      -3.36491474E-04
   55.2000008      -3.35486722E-04
   55.3199997      -3.34314653E-04
   55.4399986      -3.32972646E-04
   55.5600014      -3.31458083E-04
   55.6800003      -3.29768460E-04
   55.7999992      -3.27901304E-04
   55.9199982      -3.25854227E-04
   56.0400009      -3.23624990E-04
   56.1599998      -3.21211410E-04
   56.2799988      -3.18611477E-04
   56.4000015      -3.15823214E-04
   56.5200005      -3.12844844E-04
   56.6399994      -3.09674680E-04
   56.7599983      -3.06310976E-04
   56.8800011      -3.02752218E-04
   57.0000000      -2.98996980E-04
   57.1199989      -2.95043894E-04
   57.2400017      -2.90891650E-04
   57.3600006      -2.86539114E-04
   57.4799995      -2.81985267E-04
   57.5999985      -2.77229265E-04
   57.7200012      -2.72270292E-04
   57.8400002      -2.67107825E-04
   57.9599991      -2.61741399E-04
   58.0800018      -2.56170722E-04
   58.2000008      -2.50395708E-04
   58.3199997      -2.44416296E-04
   58.4399986      -2.38232678E-04
   58.5600014      -2.31845144E-04
   58.6800003      -2.25254174E-04
   58.7999992      -2.18460438E-04
   58.9199982      -2.11464765E-04
   59.0400009      -2.04268188E-04
   59.1599998      -1.96871886E-04
   59.2799988      -1.89277212E-04
   59.4000015      -1.81485681E-04
   59.5200005      -1.73498964E-04
   59.6399994      -1.65318925E-04
   59.7599983      -1.56947543E-04
   59.8800011      -1.48387073E-04
   60.0000000      -1.39639931E-04
   60.1199989      -1.30708810E-04
   60.2400017      -1.21596560E-04
   60.3600006      -1.12306334E-04
   60.4799995      -1.02841426E-04
   60.5999985      -9.32053226E-05
   60.7200012      -8.34017410E-05
   60.8400002      -7.34345303E-05
   60.9599991      -6.33077798E-05
   61.0800018      -5.30257457E-05
   61.2000008      -4.25928920E-05
   61.3199997      -3.20138788E-05
   61.4399986      -2.12935920E-05
   61.5600014      -1.04371247E-05
   61.6800003       5.50217180E-07
   61.7999992       1.16629162E-05
   61.9199982       2.28952267E-05
   62.0400009       3.42412022E-05
   62.1599998       4.56947091E-05
   62.2799988       5.72494209E-05
   62.4000015       6.88988512E-05
   62.5200005       8.06363241E-05
   62.6399994       9.24549968E-05
   62.7599983       1.04347877E-04
   62.8800011       1.16307783E-04
   63.0000000       1.28327360E-04
   63.1199989       1.40399046E-04
   63.2400017       1.52515146E-04
   63.3600006       1.64667741E-04
   63.4799995       1.76848756E-04
   63.5999985       1.89049955E-04
   63.7200012       2.01262941E-04
   63.8400002       2.13479201E-04
   63.9599991       2.25690106E-04
   64.0800018       2.37886925E-04
   64.1999969       2.50060810E-04
   64.3199997       2.62202899E-04
   64.4400024       2.74304097E-04
   64.5599976       2.86355353E-04
   64.6800003       2.98347411E-04
   64.8000031       3.10270960E-04
   64.9199982       3.22116655E-04
   65.0400009       3.33875068E-04
   65.1600037       3.45536770E-04
   65.2799988       3.57092242E-04
   65.4000015       3.68532055E-04
   65.5199966       3.79846635E-04
   65.6399994       3.91026551E-04
   65.7600021       4.02062258E-04
   65.8799973       4.12944268E-04
   66.0000000       4.23663034E-04
   66.1200027       4.34209185E-04
   66.2399979       4.44573408E-04
   66.3600006       4.54746390E-04
   66.4800034       4.64719022E-04
   66.5999985       4.74482222E-04
   66.7200012       4.84027056E-04
   66.8399963       4.93344618E-04
   66.9599991       5.02426061E-04
   67.0800018       5.11262799E-04
   67.1999969       5.19846333E-04
   67.3199997       5.28168224E-04
   67.4400024       5.36220497E-04
   67.5599976       5.43995062E-04
   67.6800003       5.51484467E-04
   67.8000031       5.58681204E-04
   67.9199982       5.65578172E-04
   68.0400009       5.72168385E-04
   68.1600037       5.78445091E-04
   68.2799988       5.84401772E-04
   68.4000015       5.90032199E-04
   68.5199966       5.95330377E-04
   68.6399994       6.00290718E-04
   68.7600021       6.04907749E-04
   68.8799973       6.09176641E-04
   69.0000000       6.13092736E-04
   69.1200027       6.16651785E-04
   69.2399979       6.19849889E-04
   69.3600006       6.22683554E-04
   69.4800034       6.25149638E-04
   69.5999985       6.27245288E-04
   69.7200012       6.28968177E-04
   69.8399963       6.30316150E-04
   69.9599991       6.31287578E-04
   70.0800018       6.31881237E-04
   70.1999969       6.32096140E-04
   70.3199997       6.31931936E-04
   70.4400024       6.31388451E-04
   70.5599976       6.30466151E-04
   70.6800003       6.29165908E-04
   70.8000031       6.27489004E-04
   70.9199982       6.25437009E-04
   71.0400009       6.23012253E-04
   71.1600037       6.20217295E-04
   71.2799988       6.17055222E-04
   71.4000015       6.13529584E-04
   71.5199966       6.09644339E-04
   71.6399994       6.05403795E-04
   71.7600021       6.00812782E-04
   71.8799973       5.95876423E-04
   72.0000000       5.90600306E-04
   72.1200027       5.84990194E-04
   72.2399979       5.79052488E-04
   72.3600006       5.72793884E-04
   72.4800034       5.66221483E-04
   72.5999985       5.59342909E-04
   72.7200012       5.52166079E-04