  -30.0000000       0.00000000    
  -29.8799992       0.00000000    
  -29.7600002       0.00000000    
  -29.6399994       8.55772972E-42
  -29.5200005      -1.60168414E-41
  -29.3999996      -2.11902952E-40
  -29.2800007      -4.78516801E-40
  -29.1599998       4.82412411E-40
  -29.0400009       5.74529568E-39
  -28.9200001       1.79485412E-38
  -28.7999992       3.30199952E-38
  -28.6800003       3.31951575E-38
  -28.5599995      -1.26965909E-38
  -28.4400005      -1.33712169E-37
  -28.3199997      -3.22332076E-37
  -28.2000008      -4.83300621E-37
  -28.0799999      -3.84198462E-37
  -27.9599991       3.30703411E-37
  -27.8400002       1.94717206E-36
  -27.7199993       4.21592261E-36
  -27.6000004       5.74554863E-36
  -27.4799995       3.78650701E-36
  -27.3600006      -4.79026826E-36
  -27.2399998      -2.08835841E-35
  -27.1200008      -3.97193773E-35
  -27.0000000      -4.89171528E-35
  -26.8799992      -3.09616631E-35
  -26.7600002       2.85695694E-35
  -26.6399994       1.29008990E-34
  -26.5200005       2.43938702E-34
  -26.3999996       3.17652668E-34
  -26.2800007       2.72612890E-34
  -26.1599998       2.98148559E-35
  -26.0400009      -4.55590891E-34
  -25.9200001      -1.14065499E-33
  -25.7999992      -1.82832810E-33
  -25.6800003      -2.11837196E-33
  -25.5599995      -1.44020934E-33
  -25.4400005       7.51019575E-34
  -25.3199997       4.57742974E-33
  -25.2000008       9.22956802E-33
  -25.0799999       1.26125710E-32
  -24.9599991       1.15402527E-32
  -24.8400002       2.81032249E-33
  -24.7199993      -1.48377876E-32
  -24.6000004      -3.84370460E-32
  -24.4799995      -5.93045070E-32
  -24.3600006      -6.37479638E-32
  -24.2399998      -3.70447788E-32
  -24.1200008       2.92794895E-32
  -24.0000000       1.28515457E-31
  -23.8799992       2.31714105E-31
  -23.7600002       2.87460584E-31
  -23.6399994       2.33366662E-31
  -23.5200005       2.15350359E-32
  -23.3999996      -3.45646285E-31
  -23.2800007      -7.81525867E-31
  -23.1599998      -1.10336686E-30
  -23.0400009      -1.06553739E-30
  -22.9200001      -4.51197050E-31
  -22.7999992       7.88707527E-31
  -22.6800003       2.39626743E-30
  -22.5599995       3.74719763E-30
  -22.4400005       3.95827579E-30
  -22.3199997       2.20867997E-30
  -22.2000008      -1.77099565E-30
  -22.0799999      -7.21212917E-30
  -21.9599991      -1.20942961E-29
  -21.8400002      -1.34809965E-29
  -21.7199993      -8.53898506E-30
  -21.6000004       3.91577330E-30
  -21.4799995       2.18613406E-29
  -21.3600006       3.92904394E-29
  -21.2399998       4.70044779E-29
  -21.1200008       3.53982824E-29
  -21.0000000      -1.09806585E-30
  -20.8799992      -5.91839716E-29
  -20.7600002      -1.23487522E-28
  -20.6399994      -1.67228016E-28
  -20.5200005      -1.58304328E-28
  -20.3999996      -7.07725991E-29
  -20.2800007       1.00583178E-28
  -20.1599998       3.27193638E-28
  -20.0400009       5.41265566E-28
  -19.9200001       6.43860577E-28
  -19.7999992       5.29806091E-28
  -19.6800003       1.27699543E-28
  -19.5599995      -5.53493392E-28
  -19.4400005      -1.38646387E-27
  -19.3199997      -2.11548575E-27
  -19.2000008      -2.39208029E-27
  -19.0799999      -1.86518342E-27
  -18.9599991      -3.17687272E-28
  -18.8400002       2.18070371E-27
  -18.7199993       5.15528228E-27
  -18.6000004       7.70518888E-27
  -18.4799995       8.63473742E-27
  -18.3600006       6.76149322E-27
  -18.2399998       1.37038707E-27
  -18.1200008      -7.28613348E-27
  -18.0000000      -1.76066513E-26
  -17.8799992      -2.65768995E-26
  -17.7600002      -3.01992810E-26
  -17.6399994      -2.44931712E-26
  -17.5200005      -6.97008530E-27
  -17.3999996       2.17316989E-26
  -17.2800007       5.65762043E-26
  -17.1599998       8.78593833E-26
  -17.0400009       1.02510490E-25
  -16.9200001       8.72319308E-26
  -16.7999992       3.32006718E-26
  -16.6800003      -5.86397905E-26
  -16.5599995      -1.73329332E-25
  -16.4400005      -2.80690959E-25
  -16.3199997      -3.39013393E-25
  -16.2000008      -3.04540048E-25
  -16.0799999      -1.46042411E-25
  -15.9600000       1.38366647E-25
  -15.8400002       5.07093053E-25
  -15.7200003       8.69766282E-25
  -15.6000004       1.09661941E-24
  -15.4799995       1.04585414E-24
  -15.3599997       6.07518103E-25
  -15.2399998      -2.43948628E-25
  -15.1199999      -1.40280837E-24
  -15.0000000      -2.60943039E-24
  -14.8800001      -3.47053439E-24
  -14.7600002      -3.53422544E-24
  -14.6400003      -2.41827026E-24
  -14.5200005       2.87711716E-26
  -14.3999996       3.57395839E-24
  -14.2799997       7.50921587E-24
  -14.1599998       1.06812713E-23
  -14.0400000       1.16842654E-23
  -13.9200001       9.22037113E-24
  -13.8000002       2.57981438E-24
  -13.6800003      -7.86857435E-24
  -13.5600004      -2.03345417E-23
  -13.4399996      -3.15869467E-23
  -13.3199997      -3.74000533E-23
  -13.1999998      -3.35140393E-23
  -13.0799999      -1.70100531E-23
  -12.9600000       1.21761627E-23
  -12.8400002       5.00360525E-23
  -12.7200003       8.80801697E-23
  -12.6000004       1.14201967E-22
  -12.4799995       1.15052359E-22
  -12.3599997       7.97753135E-23
  -12.2399998       4.46161032E-24
  -12.1199999      -1.03803524E-22
  -12.0000000      -2.24735617E-22
  -11.8800001      -3.25904138E-22
  -11.7600002      -3.67983392E-22
  -11.6400003      -3.14191005E-22
  -11.5200005      -1.42595532E-22
  -11.3999996       1.41409212E-22
  -11.2799997       4.96234303E-22
  -11.1599998       8.42888007E-22
  -11.0400000       1.07463878E-21
  -10.9200001       1.07860888E-21
  -10.8000002       7.67109700E-22
  -10.6800003       1.12807261E-22
  -10.5600004      -8.21440179E-22
  -10.4399996      -1.86881042E-21
  -10.3199997      -2.77043648E-21
  -10.1999998      -3.21823725E-21
  -10.0799999      -2.92644041E-21
  -9.96000004      -1.72035695E-21
  -9.84000015       3.77826407E-22
  -9.72000027       3.09200456E-21
  -9.60000038       5.88921658E-21
  -9.47999954       8.04804327E-21
  -9.35999966       8.79982685E-21
  -9.23999977       7.52332803E-21
  -9.11999989       3.95236106E-21
  -9.00000000      -1.65907268E-21
  -8.88000011      -8.47194991E-21
  -8.76000023      -1.51409530E-20
  -8.64000034      -2.00482360E-20
  -8.52000046      -2.16599683E-20
  -8.39999962      -1.89283029E-20
  -8.27999973      -1.16295552E-20
  -8.15999985      -5.25093233E-22
  -8.03999996       1.27357614E-20
  -7.92000008       2.59810596E-20
  -7.80000019       3.70665804E-20
  -7.67999983       4.44367564E-20
  -7.55999994       4.74696303E-20
  -7.44000006       4.63991810E-20
  -7.32000017       4.17213131E-20
  -7.19999981       3.31895073E-20
  -7.07999992       1.87488968E-20
  -6.96000004      -6.03076705E-21
  -6.84000015      -4.73835034E-20
  -6.71999979      -1.11141590E-19
  -6.59999990      -1.98825617E-19
  -6.48000002      -3.02639899E-19
  -6.36000013      -4.00792581E-19
  -6.23999977      -4.55267750E-19
  -6.11999989      -4.14468643E-19
  -6.00000000      -2.22727479E-19
  -5.88000011       1.62678613E-19
  -5.76000023       7.48637125E-19
  -5.63999987       1.48193491E-18
  -5.51999998       2.23092514E-18
  -5.40000010       2.78223936E-18
  -5.28000021       2.86142267E-18
  -5.15999985       2.18323611E-18
  -5.03999996       5.30995359E-19
  -4.92000008      -2.14482225E-18
  -4.80000019      -5.62877506E-18
  -4.67999983      -9.37246009E-18
  -4.55999994      -1.24896001E-17
  -4.44000006      -1.38438469E-17
  -4.32000017      -1.22452203E-17
  -4.19999981      -6.74713028E-18
  -4.07999992       2.99534735E-18
  -3.96000004       1.63779478E-17
  -3.83999991       3.16078120E-17
  -3.72000003       4.56778862E-17
  -3.59999990       5.46436571E-17
  -3.48000002       5.42439602E-17
  -3.35999990       4.08330298E-17
  -3.24000001       1.24993120E-17
  -3.11999989      -2.98436475E-17
  -3.00000000      -8.16740865E-17
  -2.88000011      -1.34680819E-16
  -2.75999999      -1.77422459E-16
  -2.64000010      -1.96931944E-16
  -2.51999998      -1.81169018E-16
  -2.40000010      -1.21986178E-16
  -2.27999997      -1.80481876E-17
  -2.16000009       1.22998369E-16
  -2.03999996       2.83811836E-16
  -1.91999996       4.38622221E-16
  -1.79999995       5.56626695E-16
  -1.67999995       6.07148664E-16
  -1.55999994       5.65650137E-16
  -1.44000006       4.19268550E-16
  -1.32000005       1.70420091E-16
  -1.20000005      -1.62700338E-16
  -1.08000004      -5.49141995E-16
 -0.959999979      -9.51070828E-16
 -0.839999974      -1.33062375E-15
 -0.720000029      -1.65497967E-15
 -0.600000024      -1.89671599E-15
 -0.479999989      -2.02744790E-15
 -0.360000014      -2.00490687E-15
 -0.239999995      -1.75679408E-15
 -0.119999997      -1.16826056E-15
  -1.11022302E-15  -8.26882629E-17
  0.119999997       1.67380953E-15
  0.239999995       4.23628663E-15
  0.360000014       7.61208350E-15
  0.479999989       1.15688133E-14
  0.600000024       1.55224124E-14
  0.720000029       1.84621639E-14
  0.839999974       1.89592757E-14
  0.959999979       1.53066511E-14
   1.08000004       5.82528487E-15
   1.20000005      -1.06556796E-14
   1.32000005      -3.41829565E-14
   1.44000006      -6.30215959E-14
   1.55999994      -9.31094936E-14
   1.67999995      -1.17825346E-13
   1.79999995      -1.28289130E-13
   1.91999996      -1.14385864E-13
   2.03999996      -6.66119923E-14
   2.16000009       2.13124603E-14
   2.27999997       1.49336896E-13
   2.40000010       3.07993052E-13
   2.51999998       4.76069379E-13
   2.64000010       6.19940460E-13
   2.75999999       6.95450533E-13
   2.88000011       6.53054542E-13
   3.00000000       4.46478629E-13
   3.11999989       4.44831448E-14
   3.24000001      -5.55551265E-13
   3.35999990      -1.31442578E-12
   3.48000002      -2.14133659E-12
   3.59999990      -2.89100796E-12
   3.72000003      -3.37117964E-12
   3.83999991      -3.36305419E-12
   3.96000004      -2.65561986E-12
   4.07999992      -1.09226170E-12
   4.19999981       1.37504006E-12
   4.32000017       4.63194760E-12
   4.44000006       8.35935574E-12
   4.55999994       1.20150452E-11
   4.67999983       1.48520259E-11
   4.80000019       1.59836484E-11
   4.92000008       1.45001320E-11
   5.03999996       9.63307645E-12
   5.15999985       9.54151580E-13
   5.28000021      -1.14169342E-11
   5.40000010      -2.66304166E-11
   5.51999998      -4.29928385E-11
   5.63999987      -5.79660729E-11
   5.76000023      -6.83178722E-11
   5.88000011      -7.04484318E-11
   6.00000000      -6.08946574E-11
   6.11999989      -3.69832706E-11
   6.23999977       2.43124119E-12
   6.36000013       5.62421706E-11
   6.48000002       1.20506771E-10
   6.59999990       1.88145791E-10
   6.71999979       2.49065546E-10
   6.84000015       2.90814789E-10
   6.96000004       2.99835129E-10
   7.07999992       2.63285005E-10
   7.19999981       1.71321124E-10
   7.32000017       1.96147855E-11
   7.44000006      -1.88219787E-10
   7.55999994      -4.38685366E-10
   7.67999983      -7.07387759E-10
   7.80000019      -9.59367585E-10
   7.92000008      -1.15110921E-09
   8.03999996      -1.23440413E-09
   8.15999985      -1.16201548E-09
   8.27999973      -8.94824714E-10
   8.39999962      -4.09838830E-10
   8.52000046       2.91841190E-10
   8.64000034       1.17821530E-09
   8.76000023       2.18198881E-09
   8.88000011       3.19981663E-09
   9.00000000       4.09622558E-09
   9.11999989       4.71288608E-09
   9.23999977       4.88335861E-09
   9.35999966       4.45276171E-09
   9.47999954       3.30104633E-09
   9.60000038       1.36779288E-09
   9.72000027      -1.32420497E-09
   9.84000015      -4.64978234E-09
   9.96000004      -8.37006020E-09
   10.0799999      -1.21321060E-08
   10.1999998      -1.54821702E-08
   10.3199997      -1.78940542E-08
   10.4399996      -1.88127167E-08
   10.5600004      -1.77115567E-08
   10.6800003      -1.41599017E-08
   10.8000002      -7.89550469E-09
   10.9200001       1.10488463E-09
   11.0400000       1.25648016E-08
   11.1599998       2.58657451E-08
   11.2799997       4.00314768E-08
   11.3999996       5.37459677E-08
   11.5200005       6.54100774E-08
   11.6400003       7.32389154E-08
   11.7600002       7.53984466E-08
   11.8800001       7.01759362E-08
   12.0000000       5.61744251E-08
   12.1199999       3.25178604E-08
   12.2399998      -9.49900603E-10
   12.3599997      -4.34911556E-08
   12.4799995      -9.33454771E-08
   12.6000004      -1.47665077E-07
   12.7200003      -2.02531609E-07
   12.8400002      -2.53067213E-07
   12.9600000      -2.93647815E-07
   13.0799999      -3.18219236E-07
   13.1999998      -3.20709631E-07
   13.3199997      -2.95523819E-07
   13.4399996      -2.38096888E-07
   13.5600004      -1.45478523E-07
   13.6800003      -1.69125354E-08
   13.8000002       1.45626473E-07
   13.9200001       3.36979951E-07
   14.0400000       5.48474816E-07
   14.1599998       7.67751999E-07
   14.2799997       9.78783646E-07
   14.3999996       1.16210231E-06
   14.5200005       1.29525426E-06
   14.6400003       1.35347682E-06
   14.7600002       1.31059096E-06
   14.8800001       1.14008401E-06
   15.0000000       8.16349086E-07
   15.1199999       3.16033038E-07
   15.2399998      -3.80558731E-07
   15.3599997      -1.28806562E-06
   15.4799995      -2.41474800E-06
   15.6000004      -3.76130538E-06
   15.7200003      -5.31990008E-06
   15.8400002      -7.07345589E-06
   15.9600000      -8.99527458E-06
   16.0799999      -1.10490273E-05
   16.2000008      -1.31891402E-05
   16.3199997      -1.53616056E-05
   16.4400005      -1.75052028E-05
   16.5599995      -1.95531211E-05
   16.6800003      -2.14349457E-05
   16.7999992      -2.30789556E-05
   16.9200001      -2.44146559E-05
   17.0400009      -2.53754752E-05
   17.1599998      -2.59014832E-05
   17.2800007      -2.59421049E-05
   17.3999996      -2.54586103E-05
   17.5200005      -2.44263374E-05
   17.6399994      -2.28365134E-05
   17.7600002      -2.06975510E-05
   17.8799992      -1.80357601E-05
   18.0000000      -1.48953795E-05
   18.1200008      -1.13378983E-05
   18.2399998      -7.44064755E-06
   18.3600006      -3.29468730E-06
   18.4799995       9.97962388E-07
   18.6000004       5.32765853E-06
   18.7199993       9.58090732E-06
   18.8400002       1.36444351E-05
   18.9599991       1.74093730E-05
   19.0799999       2.07753674E-05
   19.2000008       2.36544456E-05
   19.3199997       2.59744174E-05
   19.4400005       2.76816772E-05
   19.5599995       2.87432449E-05
   19.6800003       2.91479409E-05
   19.7999992       2.89066502E-05
   19.9200001       2.80516397E-05
   20.0400009       2.66349671E-05
   20.1599998       2.47260596E-05
   20.2800007       2.24085925E-05
   20.3999996       1.97768150E-05
   20.5200005       1.69315135E-05
   20.6399994       1.39758085E-05
   20.7600002       1.10109841E-05
   20.8799992       8.13255792E-06
   21.0000000       5.42676526E-06
   21.1200008       2.96759958E-06
   21.2399998       8.14548116E-07
   21.3600006      -9.88921101E-07
   21.4799995      -2.41607017E-06
   21.6000004      -3.45681678E-06
   21.7199993      -4.11691781E-06
   21.8400002      -4.41649991E-06
   21.9599991      -4.38804818E-06
   22.0799999      -4.07398966E-06
   22.2000008      -3.52402571E-06
   22.3199997      -2.79235769E-06
   22.4400005      -1.93496157E-06
   22.5599995      -1.00703858E-06
   22.6800003      -6.07564772E-08
   22.7999992       8.56635779E-07
   22.9200001       1.70426392E-06
   23.0400009       2.44863304E-06
   23.1599998       3.06418428E-06
   23.2800007       3.53343989E-06
   23.3999996       3.84678424E-06
   23.5200005       4.00195177E-06
   23.6399994       4.00329236E-06
   23.7600002       3.86088959E-06
   23.8799992       3.58959710E-06
   24.0000000       3.20804656E-06
   24.1200008       2.73767705E-06
   24.2399998       2.20180459E-06
   24.3600006       1.62475317E-06
   24.4799995       1.03104719E-06
   24.6000004       4.44663812E-07
   24.7199993      -1.11663695E-07
   24.8400002      -6.17095282E-07
   24.9599991      -1.05328957E-06
   25.0799999      -1.40496127E-06
   25.2000008      -1.66037660E-06
   25.3199997      -1.81176904E-06
   25.4400005      -1.85565318E-06
   25.5599995      -1.79300639E-06
   25.6800003      -1.62929746E-06
   25.7999992      -1.37433801E-06
   25.9200001      -1.04194623E-06
   26.0400009      -6.49418496E-07
   26.1599998      -2.16818506E-07
   26.2800007       2.33893857E-07
   26.3999996       6.79859909E-07
   26.5200005       1.09840050E-06
   26.6399994       1.46812238E-06
   26.7600002       1.76999299E-06
   26.8799992       1.98832458E-06
   27.0000000       2.11160796E-06
   27.1200008       2.13314911E-06
   27.2399998       2.05146216E-06
   27.3600006       1.87039677E-06
   27.4799995       1.59898320E-06
   27.6000004       1.25099973E-06
   27.7199993       8.44281544E-07
   27.8400002       3.99804492E-07
   27.9599991      -5.94080269E-08
   28.0799999      -5.09500182E-07
   28.2000008      -9.27054543E-07
   28.3199997      -1.29035266E-06
   28.4400005      -1.58055786E-06
   28.5599995      -1.78275798E-06
   28.6800003      -1.88680895E-06
   28.7999992      -1.88793490E-06
   28.9200001      -1.78704784E-06
   29.0400009      -1.59076535E-06
   29.1599998      -1.31111835E-06
   29.2800007      -9.64957167E-07
   29.3999996      -5.73081593E-07
   29.5200005      -1.59134714E-07
   29.6399994       2.51683645E-07
   29.7600002       6.34012906E-07
   29.8799992       9.63759476E-07
   30.0000000       1.21947005E-06
   30.1200008       1.38356529E-06
   30.2399998       1.44335615E-06
   30.3600006       1.39177416E-06
   30.4799995       1.22776828E-06
   30.6000004       9.56341523E-07
   30.7199993       5.88228090E-07
   30.8400002       1.39234885E-07
   30.9599991      -3.70701571E-07
   31.0799999      -9.18673095E-07
   31.2000008      -1.48009019E-06
   31.3199997      -2.03001218E-06
   31.4400005      -2.54443171E-06
   31.5599995      -3.00143529E-06
   31.6800003      -3.38216978E-06
   31.7999992      -3.67158350E-06
   31.9200001      -3.85890735E-06
   32.0400009      -3.93788514E-06
   32.1599998      -3.90676269E-06
   32.2799988      -3.76807407E-06
   32.4000015      -3.52825668E-06
   32.5200005      -3.19714582E-06
   32.6399994      -2.78739230E-06
   32.7599983      -2.31383774E-06
   32.8800011      -1.79288588E-06
   33.0000000      -1.24189557E-06
   33.1199989      -6.78610661E-07
   33.2400017      -1.20639655E-07
   33.3600006       4.15011783E-07
   33.4799995       9.12358644E-07
   33.5999985       1.35680898E-06
   33.7200012       1.73550075E-06
   33.8400002       2.03760851E-06
   33.9599991       2.25462850E-06
   34.0800018       2.38064172E-06
   34.2000008       2.41255361E-06
   34.3199997       2.35029597E-06
   34.4399986       2.19697540E-06
   34.5600014       1.95894540E-06
   34.6800003       1.64576875E-06
   34.7999992       1.27004603E-06
   34.9199982       8.47085062E-07
   35.0400009       3.94392799E-07
   35.1599998      -6.90070863E-08
   35.2799988      -5.23418009E-07
   35.4000015      -9.49436640E-07
   35.5200005      -1.32898731E-06
   35.6399994      -1.64635310E-06
   35.7599983      -1.88912213E-06
   35.8800011      -2.04896628E-06
   36.0000000      -2.12217719E-06
   36.1199989      -2.10989970E-06
   36.2400017      -2.01802800E-06
   36.3600006      -1.85675685E-06
   36.4799995      -1.63982133E-06
   36.5999985      -1.38347298E-06
   36.7200012      -1.10528333E-06
   36.8400002      -8.22870675E-07
   36.9599991      -5.52657525E-07
   37.0800018      -3.08763219E-07
   37.2000008      -1.02117333E-07
   37.3199997       6.01405432E-08
   37.4399986       1.74939004E-07
   37.5600014       2.43226992E-07
   37.6800003       2.69624564E-07
   37.7999992       2.61822322E-07
   37.9199982       2.29797166E-07
   38.0400009       1.84922087E-07
   38.1599998       1.39048083E-07
   38.2799988       1.03630143E-07
   38.4000015       8.89560496E-08
   38.5200005       1.03520144E-07
   38.6399994       1.53562425E-07
   38.7599983       2.42779208E-07
   38.8800011       3.72191494E-07
   39.0000000       5.40149756E-07
   39.1199989       7.42446844E-07
   39.2400017       9.72512453E-07
   39.3600006       1.22166648E-06
   39.4799995       1.47942262E-06
   39.5999985       1.73383364E-06
   39.7200012       1.97189183E-06
   39.8400002       2.17999013E-06
   39.9599991       2.34445724E-06
   40.0800018       2.45217439E-06
   40.2000008       2.49126083E-06
   40.3199997       2.45181354E-06
   40.4399986       2.32665661E-06
   40.5600014       2.11204610E-06
   40.6800003       1.80826532E-06
   40.7999992       1.42003114E-06
   40.9199982       9.56651547E-07
   41.0400009       4.31873133E-07
   41.1599998      -1.36606289E-07
   41.2799988      -7.27959105E-07
   41.4000015      -1.31934064E-06
   41.5200005      -1.88721651E-06
   41.6399994      -2.40879422E-06
   41.7599983      -2.86342970E-06
   41.8800011      -3.23387144E-06
   42.0000000      -3.50721689E-06
   42.1199989      -3.67549046E-06
   42.2400017      -3.73578200E-06
   42.3600006      -3.68995029E-06
   42.4799995      -3.54394342E-06
   42.5999985      -3.30682906E-06
   42.7200012      -2.98967620E-06
   42.8400002      -2.60443244E-06
   42.9599991      -2.16294757E-06
   43.0800018      -1.67626160E-06
   43.2000008      -1.15424075E-06
   43.3199997      -6.05590401E-07
   43.4399986      -3.82157097E-08
   43.5600014       5.40145663E-07
   43.6800003       1.12114174E-06
   43.7999992       1.69502050E-06
   43.9199982       2.24998985E-06
   44.0400009       2.77186086E-06
   44.1599998       3.24407733E-06
   44.2799988       3.64818538E-06
   44.4000015       3.96474388E-06
   44.5200005       4.17461479E-06
   44.6399994       4.26052793E-06
   44.7599983       4.20876358E-06
   44.8800011       4.01077978E-06
   45.0000000       3.66461177E-06
   45.1199989       3.17587046E-06
   45.2400017       2.55821465E-06
   45.3600006       1.83320958E-06
   45.4799995       1.02954539E-06
   45.5999985       1.81644950E-07
   45.7200012      -6.72247381E-07
   45.8400002      -1.49235859E-06
   45.9599991      -2.23988036E-06
   46.0800018      -2.87946818E-06
   46.2000008      -3.38153200E-06
   46.3199997      -3.72413956E-06
   46.4399986      -3.89436855E-06
   46.5600014      -3.88899934E-06
   46.6800003      -3.71450460E-06
   46.7999992      -3.38634004E-06
   46.9199982      -2.92762684E-06
   47.0400009      -2.36734422E-06
   47.1599998      -1.73821354E-06
   47.2799988      -1.07446067E-06
   47.4000015      -4.09652074E-07
   47.5200005       2.25223545E-07
   47.6399994       8.03291925E-07
   47.7599983       1.30286469E-06
   47.8800011       1.70801377E-06
   48.0000000       2.00867453E-06
   48.1199989       2.20034894E-06
   48.2400017       2.28351314E-06
   48.3600006       2.26285101E-06
   48.4799995       2.14643342E-06
   48.5999985       1.94495010E-06
   48.7200012       1.67106202E-06
   48.8400002       1.33891433E-06
   48.9599991       9.63801881E-07
   49.0800018       5.61948127E-07
   49.2000008       1.50328077E-07
   49.3199997      -2.53542680E-07
   49.4399986      -6.31931300E-07
   49.5600014      -9.67382221E-07
   49.6800003      -1.24341068E-06
   49.7999992      -1.44538478E-06
   49.9199982      -1.56154397E-06
   50.0400009      -1.58406192E-06
   50.1599998      -1.51003644E-06
   50.2799988      -1.34226752E-06
   50.4000015      -1.08969516E-06
   50.5200005      -7.67381664E-07
   50.6399994      -3.95965628E-07
   50.7599983      -5.63614100E-10
   50.8800011       3.90841961E-07
   51.0000000       7.49427727E-07
   51.1199989       1.04780918E-06
   51.2400017       1.26237285E-06
   51.3600006       1.37543111E-06
   51.4799995       1.37697361E-06
   51.5999985       1.26581153E-06
   51.7200012       1.04996366E-06
   51.8400002       7.46207206E-07
   51.9599991       3.78799967E-07
   52.0800018      -2.25308181E-08
   52.2000008      -4.25151399E-07
   52.3199997      -7.96394545E-07
   52.4399986      -1.10645976E-06
   52.5600014      -1.33104811E-06
   52.6800003      -1.45346883E-06
   52.7999992      -1.46600416E-06
   52.9199982      -1.37040229E-06
   53.0400009      -1.17746060E-06
   53.1599998      -9.05756565E-07
   53.2799988      -5.79677248E-07
   53.4000015      -2.26964858E-07
   53.5200005       1.23954280E-07
   53.6399994       4.46580316E-07
   53.7599983       7.18626040E-07
   53.8800011       9.23761661E-07
   54.0000000       1.05266906E-06
   54.1199989       1.10333565E-06
   54.2400017       1.08060408E-06
   54.3600006       9.95071673E-07
   54.4799995       8.61498563E-07
   54.5999985       6.96925156E-07
   54.7200012       5.18720242E-07
   54.8400002       3.42772779E-07
   54.9599991       1.82010623E-07
   55.0800018       4.53823681E-08
   55.2000008      -6.26233145E-08
   55.3199997      -1.41911741E-07
   55.4399986      -1.96222459E-07
   55.5600014      -2.32180724E-07
   55.6800003      -2.58102915E-07
   55.7999992      -2.82716400E-07
   55.9199982      -3.13952626E-07
   56.0400009      -3.57952331E-07
   56.1599998      -4.18383735E-07
   56.2799988      -4.96131747E-07
   56.4000015      -5.89361150E-07
   56.5200005      -6.93912909E-07
   56.6399994      -8.03950229E-07
   56.7599983      -9.12745804E-07
   56.8800011      -1.01349156E-06
   57.0000000      -1.10002020E-06
   57.1199989      -1.16734759E-06
   57.2400017      -1.21198116E-06
   57.3600006      -1.23197754E-06
   57.4799995      -1.22677227E-06
   57.5999985      -1.19683648E-06
   57.7200012      -1.14324314E-06
   57.8400002      -1.06722678E-06
   57.9599991      -9.69825464E-07
   58.0800018      -8.51669938E-07
   58.2000008      -7.12961935E-07
   58.3199997      -5.53648817E-07
   58.4399986      -3.73771400E-07
   58.5600014      -1.73930573E-07
   58.6800003       4.42024799E-08
   58.7999992       2.77418792E-07
   58.9199982       5.20631886E-07
   59.0400009       7.66737685E-07
   59.1599998       1.00672185E-06
   59.2799988       1.23003235E-06
   59.4000015       1.42520014E-06
   59.5200005       1.58065779E-06
   59.6399994       1.68567783E-06
   59.7599983       1.73133537E-06
   59.8800011       1.71139584E-06
   60.0000000       1.62302467E-06
   60.1199989       1.46724767E-06
   60.2400017       1.24910343E-06
   60.3600006       9.77471473E-07
   60.4799995       6.64585855E-07
   60.5999985       3.25280553E-07
   60.7200012      -2.39631426E-08
   60.8400002      -3.66079973E-07
   60.9599991      -6.84500264E-07
   61.0800018      -9.64154765E-07
   61.2000008      -1.19232573E-06
   61.3199997      -1.35928804E-06
   61.4399986      -1.45870729E-06
   61.5600014      -1.48778872E-06
   61.6800003      -1.44719570E-06
   61.7999992      -1.34077345E-06
   61.9199982      -1.17512559E-06
   62.0400009      -9.59097065E-07
   62.1599998      -7.03209878E-07
   62.2799988      -4.19092657E-07
   62.4000015      -1.18933158E-07
   62.5200005       1.85029961E-07
   62.6399994       4.80968481E-07
   62.7599983       7.57879263E-07
   62.8800011       1.00595400E-06
   63.0000000       1.21690914E-06
   63.1199989       1.38427140E-06
   63.2400017       1.50361973E-06
   63.3600006       1.57276747E-06
   63.4799995       1.59187493E-06
   63.5999985       1.56346982E-06
   63.7200012       1.49235893E-06
   63.8400002       1.38541225E-06
   63.9599991       1.25120584E-06
   64.0800018       1.09952214E-06
   64.1999969       9.40716234E-07
   64.3199997       7.84975725E-07
   64.4400024       6.41516181E-07
   64.5599976       5.17775788E-07
   64.6800003       4.18680656E-07
   64.8000031       3.46064667E-07
   64.9199982       2.98322703E-07
   65.0400009       2.70365035E-07
   65.1600037       2.53918529E-07
   65.2799988       2.38188292E-07
   65.4000015       2.10854623E-07
   65.5199966       1.59340914E-07
   65.6399994       7.22496196E-08
   65.7600021      -5.91677427E-08
   65.8799973      -2.39656941E-07
   66.0000000      -4.68880074E-07
   66.1200027      -7.40746600E-07
   66.2399979      -1.04326659E-06
   66.3600006      -1.35898961E-06
   66.4800034      -1.66603581E-06
   66.5999985      -1.93966775E-06
   66.7200012      -2.15428781E-06
   66.8399963      -2.28569729E-06
   66.9599991      -2.31342210E-06
   67.0800018      -2.22288168E-06
   67.1999969      -2.00719114E-06
   67.3199997      -1.66840596E-06
   67.4400024      -1.21806613E-06
   67.5599976      -6.76950549E-07
   67.6800003      -7.40264241E-08
   67.8000031       5.55352585E-07
   67.9199982       1.17187801E-06
   68.0400009       1.73516491E-06
   68.1600037       2.20684933E-06
   68.2799988       2.55365035E-06
   68.4000015       2.75013531E-06
   68.5199966       2.78094399E-06
   68.6399994       2.64226423E-06
   68.7600021       2.34240861E-06
   68.8799973       1.90141475E-06
   69.0000000       1.34967854E-06
   69.1200027       7.25710436E-07
   69.2399979       7.31923819E-08
   69.3600006      -5.62420553E-07
   69.4800034      -1.13746353E-06
   69.5999985      -1.61347793E-06
   69.7200012      -1.96017663E-06
   69.8399963      -2.15769819E-06
   69.9599991      -2.19795038E-06
   70.0800018      -2.08493793E-06
   70.1999969      -1.83405257E-06
   70.3199997      -1.47041771E-06
   70.4400024      -1.02645072E-06
   70.5599976      -5.38889765E-07
   70.6800003      -4.55659794E-08
   70.8000031       4.17774856E-07
   70.9199982       8.20313971E-07
   71.0400009       1.13841747E-06
   71.1600037       1.35712799E-06
   71.2799988       1.47078708E-06
   71.4000015       1.48277650E-06
   71.5199966       1.40445127E-06
   71.6399994       1.25341705E-06
   71.7600021       1.05136257E-06
   71.8799973       8.21691629E-07
   72.0000000       5.87206671E-07
   72.1200027       3.68075320E-07
   72.2399979       1.80263925E-07
   72.3600006       3.45608804E-08
   72.4800034      -6.37640341E-08
   72.5999985      -1.14691126E-07
   72.7200012      -1.22667387E-07