  -30.0000000       0.00000000    
  -29.8799992       0.00000000    
  -29.7600002       0.00000000    
  -29.6399994       5.92805302E-41
  -29.5200005       1.79772580E-40
  -29.3999996       2.47168030E-40
  -29.2800007       5.76709988E-40
  -29.1599998       2.44134499E-39
  -29.0400009       6.03119420E-39
  -28.9200001       4.15877358E-39
  -28.7999992      -2.26166826E-38
  -28.6800003      -9.39960742E-38
  -28.5599995      -1.88392583E-37
  -28.4400005      -1.88399937E-37
  -28.3199997       1.22244446E-37
  -28.2000008       9.22566121E-37
  -28.0799999       2.05308171E-36
  -27.9599991       2.69146575E-36
  -27.8400002       1.34815638E-36
  -27.7199993      -3.42360183E-36
  -27.6000004      -1.15161906E-35
  -27.4799995      -1.95819982E-35
  -27.3600006      -2.06017524E-35
  -27.2399998      -6.30845287E-36
  -27.1200008       2.71262598E-35
  -27.0000000       7.23223932E-35
  -26.8799992       1.07655618E-34
  -26.7600002       1.03028108E-34
  -26.6399994       3.54615278E-35
  -26.5200005      -9.19870305E-35
  -26.3999996      -2.40741358E-34
  -26.2800007      -3.47956223E-34
  -26.1599998      -3.57649345E-34
  -26.0400009      -2.53467370E-34
  -25.9200001      -6.57754694E-35
  -25.7999992       1.61808898E-34
  -25.6800003       4.27664544E-34
  -25.5599995       7.96571359E-34
  -25.4400005       1.33975913E-33
  -25.3199997       1.98955578E-33
  -25.2000008       2.39481995E-33
  -25.0799999       1.92426368E-33
  -24.9599991      -7.04917846E-35
  -24.8400002      -3.77244202E-33
  -24.7199993      -8.43673822E-33
  -24.6000004      -1.22932259E-32
  -24.4799995      -1.30480152E-32
  -24.3600006      -8.89377189E-33
  -24.2399998       4.28491476E-34
  -24.1200008       1.31275345E-32
  -24.0000000       2.58102883E-32
  -23.8799992       3.47540547E-32
  -23.7600002       3.73733353E-32
  -23.6399994       3.31002782E-32
  -23.5200005       2.32045127E-32
  -23.3999996       9.62164020E-33
  -23.2800007      -6.72578782E-33
  -23.1599998      -2.75142614E-32
  -23.0400009      -5.78937962E-32
  -22.9200001      -1.05776459E-31
  -22.7999992      -1.78225327E-31
  -22.6800003      -2.73795251E-31
  -22.5599995      -3.71494254E-31
  -22.4400005      -4.20716857E-31
  -22.3199997      -3.40315113E-31
  -22.2000008      -3.55994820E-32
  -22.0799999       5.63366059E-31
  -21.9599991       1.44965650E-30
  -21.8400002       2.49200627E-30
  -21.7199993       3.41374468E-30
  -21.6000004       3.81145486E-30
  -21.4799995       3.21083931E-30
  -21.3600006       1.14723265E-30
  -21.2399998      -2.73306292E-30
  -21.1200008      -8.52770784E-30
  -21.0000000      -1.58447370E-29
  -20.8799992      -2.34575634E-29
  -20.7600002      -2.89211573E-29
  -20.6399994      -2.83790682E-29
  -20.5200005      -1.69364609E-29
  -20.3999996       1.00113224E-29
  -20.2800007       5.43357138E-29
  -20.1599998       1.11963480E-28
  -20.0400009       1.69917492E-28
  -19.9200001       2.05220234E-28
  -19.7999992       1.87451231E-28
  -19.6800003       8.62351022E-29
  -19.5599995      -1.16387449E-28
  -19.4400005      -4.10746401E-28
  -19.3199997      -7.45762926E-28
  -19.2000008      -1.02270713E-27
  -19.0799999      -1.10319665E-27
  -18.9599991      -8.36716316E-28
  -18.8400002      -1.08862528E-28
  -18.7199993       1.09529726E-27
  -18.6000004       2.62714890E-27
  -18.4799995       4.13284344E-27
  -18.3600006       5.06240046E-27
  -18.2399998       4.75571422E-27
  -18.1200008       2.61802250E-27
  -18.0000000      -1.62890513E-27
  -17.8799992      -7.66964700E-27
  -17.7600002      -1.43792626E-26
  -17.6399994      -1.97810015E-26
  -17.5200005      -2.12867798E-26
  -17.3999996      -1.62848162E-26
  -17.2800007      -3.04747348E-27
  -17.1599998       1.81956515E-26
  -17.0400009       4.43125665E-26
  -16.9200001       6.88491667E-26
  -16.7999992       8.25513478E-26
  -16.6800003       7.51291589E-26
  -16.5599995       3.82859804E-26
  -16.4400005      -3.03906938E-26
  -16.3199997      -1.23582962E-25
  -16.2000008      -2.21794653E-25
  -16.0799999      -2.93865010E-25
  -15.9600000      -3.01779898E-25
  -15.8400002      -2.10310761E-25
  -15.7200003      -6.06658351E-28
  -15.6000004       3.14960358E-25
  -15.4799995       6.81209150E-25
  -15.3599997       9.97505839E-25
  -15.2399998       1.12952082E-24
  -15.1199999       9.38615794E-25
  -15.0000000       3.27586176E-25
  -14.8800001      -7.04817834E-25
  -14.7600002      -2.01504460E-24
  -14.6400003      -3.29128941E-24
  -14.5200005      -4.07626873E-24
  -14.3999996      -3.85148597E-24
  -14.2799997      -2.18471537E-24
  -14.1599998       1.07843892E-24
  -14.0400000       5.62258086E-24
  -13.9200001       1.05355111E-23
  -13.8000002       1.43215489E-23
  -13.6800003       1.51198351E-23
  -13.5600004       1.11545831E-23
  -13.4399996       1.37900331E-24
  -13.3199997      -1.38091521E-23
  -13.1999998      -3.19859684E-23
  -13.0799999      -4.85139896E-23
  -12.9600000      -5.70039662E-23
  -12.8400002      -5.05875673E-23
  -12.7200003      -2.39717253E-23
  -12.6000004       2.40282283E-23
  -12.4799995       8.80825678E-23
  -12.3599997       1.54923295E-22
  -12.2399998       2.03842933E-22
  -12.1199999       2.09874450E-22
  -12.0000000       1.49894856E-22
  -11.8800001       1.10579343E-23
  -11.7600002      -2.00074929E-22
  -11.6400003      -4.50327849E-22
  -11.5200005      -6.77856892E-22
  -11.3999996      -7.98327791E-22
  -11.2799997      -7.21198753E-22
  -11.1599998      -3.75634661E-22
  -11.0400000       2.57695236E-22
  -10.9200001       1.11625227E-21
  -10.8000002       2.03689873E-21
  -10.6800003       2.75999858E-21
  -10.5600004       2.96549500E-21
  -10.4399996       2.34431265E-21
  -10.3199997       6.99026486E-22
  -10.1999998      -1.94397420E-21
  -10.0799999      -5.24000500E-21
  -9.96000004      -8.48598532E-21
  -9.84000015      -1.06710653E-20
  -9.72000027      -1.06428297E-20
  -9.60000038      -7.39000817E-21
  -9.47999954      -4.08151988E-22
  -9.35999966       9.92432720E-21
  -9.23999977       2.20665890E-20
  -9.11999989       3.32560178E-20
  -9.00000000       3.97807474E-20
  -8.88000011       3.76458686E-20
  -8.76000023       2.36068300E-20
  -8.64000034      -3.57314115E-21
  -8.52000046      -4.19079231E-20
  -8.39999962      -8.53788299E-20
  -8.27999973      -1.23925770E-19
  -8.15999985      -1.44568760E-19
  -8.03999996      -1.33804658E-19
  -7.92000008      -8.11277871E-20
  -7.80000019       1.68458466E-20
  -7.67999983       1.52538658E-19
  -7.55999994       3.05007677E-19
  -7.44000006       4.40181785E-19
  -7.32000017       5.14692767E-19
  -7.19999981       4.83656071E-19
  -7.07999992       3.11848202E-19
  -6.96000004      -1.33602376E-20
  -6.84000015      -4.70002163E-19
  -6.71999979      -9.93848924E-19
  -6.59999990      -1.47858359E-18
  -6.48000002      -1.78656247E-18
  -6.36000013      -1.77122510E-18
  -6.23999977      -1.30971094E-18
  -6.11999989      -3.41299580E-19
  -6.00000000       1.09553331E-18
  -5.88000011       2.83662111E-18
  -5.76000023       4.58577641E-18
  -5.63999987       5.93656069E-18
  -5.51999998       6.42617345E-18
  -5.40000010       5.61957474E-18
  -5.28000021       3.21490652E-18
  -5.15999985      -8.45690123E-19
  -5.03999996      -6.28123072E-18
  -4.92000008      -1.24168512E-17
  -4.80000019      -1.81909375E-17
  -4.67999983      -2.22408617E-17
  -4.55999994      -2.30736887E-17
  -4.44000006      -1.93151371E-17
  -4.32000017      -1.00153986E-17
  -4.19999981       5.02382189E-18
  -4.07999992       2.49488840E-17
  -3.96000004       4.76370569E-17
  -3.83999991       6.96238650E-17
  -3.72000003       8.62358420E-17
  -3.59999990       9.19832650E-17
  -3.48000002       8.12526082E-17
  -3.35999990       4.93104002E-17
  -3.24000001      -6.41548669E-18
  -3.11999989      -8.48804106E-17
  -3.00000000      -1.79989221E-16
  -2.88000011      -2.79488235E-16
  -2.75999999      -3.64590853E-16
  -2.64000010      -4.10812065E-16
  -2.51999998      -3.90469933E-16
  -2.40000010      -2.77167921E-16
  -2.27999997      -5.22577672E-17
  -2.16000009       2.87207432E-16
  -2.03999996       7.20154082E-16
  -1.91999996       1.19460773E-15
  -1.79999995       1.62463619E-15
  -1.67999995       1.89375899E-15
  -1.55999994       1.86720409E-15
  -1.44000006       1.41437816E-15
  -1.32000005       4.41083037E-16
  -1.20000005      -1.07162278E-15
  -1.08000004      -3.02812140E-15
 -0.959999979      -5.18775239E-15
 -0.839999974      -7.15456289E-15
 -0.720000029      -8.39903725E-15
 -0.600000024      -8.32107888E-15
 -0.479999989      -6.35765990E-15
 -0.360000014      -2.12917867E-15
 -0.239999995       4.39332400E-15
 -0.119999997       1.27307434E-14
  -1.11022302E-15   2.17895211E-14
  0.119999997       2.98527513E-14
  0.239999995       3.47113255E-14
  0.360000014       3.39621892E-14
  0.479999989       2.54725626E-14
  0.600000024       7.97001337E-15
  0.720000029      -1.83267301E-14
  0.839999974      -5.11638190E-14
  0.959999979      -8.59525463E-14
   1.08000004      -1.15875910E-13
   1.20000005      -1.32533497E-13
   1.32000005      -1.27185385E-13
   1.44000006      -9.25440890E-14
   1.55999994      -2.49222504E-14
   1.67999995       7.36071292E-14
   1.79999995       1.93509325E-13
   1.91999996       3.17088559E-13
   2.03999996       4.19309688E-13
   2.16000009       4.70513548E-13
   2.27999997       4.41118794E-13
   2.40000010       3.08003324E-13
   2.51999998       6.17864118E-14
   2.64000010      -2.86236231E-13
   2.75999999      -6.99113076E-13
   2.88000011      -1.11296215E-12
   3.00000000      -1.44096356E-12
   3.11999989      -1.58359979E-12
   3.24000001      -1.44514099E-12
   3.35999990      -9.55055913E-13
   3.48000002      -9.15568822E-14
   3.59999990       1.09689319E-12
   3.72000003       2.47725668E-12
   3.83999991       3.83014844E-12
   3.96000004       4.86519635E-12
   4.07999992       5.25612887E-12
   4.19999981       4.69504643E-12
   4.32000017       2.96129874E-12
   4.44000006      -4.00183935E-15
   4.55999994      -4.03083556E-12
   4.67999983      -8.67618651E-12
   4.80000019      -1.32192165E-11
   4.92000008      -1.67094064E-11
   5.03999996      -1.80754404E-11
   5.15999985      -1.62934336E-11
   5.28000021      -1.06013393E-11
   5.40000010      -7.33512697E-13
   5.51999998       1.28623379E-11
   5.63999987       2.88719430E-11
   5.76000023       4.50734068E-11
   5.88000011       5.84507928E-11
   6.00000000       6.54895513E-11
   6.11999989       6.26564842E-11
   6.23999977       4.70346991E-11
   6.36000013       1.70480696E-11
   6.48000002      -2.68250804E-11
   6.59999990      -8.14764298E-11
   6.71999979      -1.40870648E-10
   6.84000015      -1.96159616E-10
   6.96000004      -2.36309333E-10
   7.07999992      -2.49283455E-10
   7.19999981      -2.23747937E-10
   7.32000017      -1.51166579E-10
   7.44000006      -2.80584028E-11
   7.55999994       1.41900436E-10
   7.67999983       3.46306317E-10
   7.80000019       5.63383118E-10
   7.92000008       7.62615471E-10
   8.03999996       9.06907771E-10
   8.15999985       9.56351331E-10
   8.27999973       8.73458805E-10
   8.39999962       6.29475250E-10
   8.52000046       2.11119414E-10
   8.64000034      -3.73112069E-10
   8.76000023      -1.08809173E-09
   8.88000011      -1.86971172E-09
   9.00000000      -2.62599253E-09
   9.11999989      -3.24234373E-09
   9.23999977      -3.59127572E-09
   9.35999966      -3.54632235E-09
   9.47999954      -2.99933056E-09
   9.60000038      -1.87963178E-09
   9.72000027      -1.73062217E-10
   9.84000015       2.06164330E-09
   9.96000004       4.68173855E-09
   10.0799999       7.45720286E-09
   10.1999998       1.00774651E-08
   10.3199997       1.21694850E-08
   10.4399996       1.33274991E-08
   10.5600004       1.31534277E-08
   10.6800003       1.13055156E-08
   10.8000002       7.55141549E-09
   10.9200001       1.82065174E-09
   11.0400000      -5.74937919E-09
   11.1599998      -1.47801806E-08
   11.2799997      -2.46376857E-08
   11.3999996      -3.44417224E-08
   11.5200005      -4.31029825E-08
   11.6400003      -4.93889125E-08
   11.7600002      -5.20174197E-08
   11.8800001      -4.97743180E-08
   12.0000000      -4.16476347E-08
   12.1199999      -2.69692624E-08
   12.2399998      -5.55222179E-09
   12.3599997       2.21894769E-08
   12.4799995       5.51518617E-08
   12.6000004       9.14958207E-08
   12.7200003       1.28656836E-07
   12.8400002       1.63417923E-07
   12.9600000       1.92050479E-07
   13.0799999       2.10522970E-07
   13.1999998       2.14772982E-07
   13.3199997       2.01032350E-07
   13.4399996       1.66191143E-07
   13.5600004       1.08181119E-07
   13.6800003       2.63562505E-08
   13.8000002      -7.81544855E-08
   13.9200001      -2.02148058E-07
   14.0400000      -3.40127542E-07
   14.1599998      -4.84185080E-07
   14.2799997      -6.24007384E-07
   14.3999996      -7.47019953E-07
   14.5200005      -8.38677749E-07
   14.6400003      -8.82905852E-07
   14.7600002      -8.62683351E-07
   14.8800001      -7.60756166E-07
   15.0000000      -5.60457352E-07
   15.1199999      -2.46604287E-07
   15.2399998       1.93564816E-07
   15.3599997       7.69456847E-07
   15.4799995       1.48623985E-06
   15.6000004       2.34405707E-06
   15.7200003       3.33738785E-06
   15.8400002       4.45459773E-06
   15.9600000       5.67772167E-06
   16.0799999       6.98250687E-06
   16.2000008       8.33873764E-06
   16.3199997       9.71085046E-06
   16.4400005       1.10588353E-05
   16.5599995       1.23394002E-05
   16.6800003       1.35073651E-05
   16.7999992       1.45172471E-05
   16.9200001       1.53249603E-05
   17.0400009       1.58895818E-05
   17.1599998       1.61751013E-05
   17.2800007       1.61520675E-05
   17.3999996       1.57990744E-05
   17.5200005       1.51040040E-05
   17.6399994       1.40649618E-05
   17.7600002       1.26908499E-05
   17.8799992       1.10015480E-05
   18.0000000       9.02766715E-06
   18.1200008       6.80987705E-06
   18.2399998       4.39781979E-06
   18.3600006       1.84863325E-06
   18.4799995      -7.74857085E-07
   18.6000004      -3.40622250E-06
   18.7199993      -5.97770713E-06
   18.8400002      -8.42260852E-06
   18.9599991      -1.06776642E-05
   19.0799999      -1.26853429E-05
   19.2000008      -1.43959414E-05
   19.3199997      -1.57693867E-05
   19.4400005      -1.67766775E-05
   19.5599995      -1.74008692E-05
   19.6800003      -1.76375797E-05
   19.7999992      -1.74949819E-05
   19.9200001      -1.69932682E-05
   20.0400009      -1.61636544E-05
   20.1599998      -1.50469077E-05
   20.2800007      -1.36915432E-05
   20.3999996      -1.21517241E-05
   20.5200005      -1.04850023E-05
   20.6399994      -8.74999205E-06
   20.7600002      -7.00410374E-06
   20.8799992      -5.30141915E-06
   21.0000000      -3.69083045E-06
   21.1200008      -2.21448795E-06
   21.2399998      -9.06634000E-07
   21.3600006       2.07160085E-07
   21.4799995       1.11033944E-06
   21.6000004       1.79530866E-06
   21.7199993       2.26300722E-06
   21.8400002       2.52216387E-06
   21.9599991       2.58829209E-06
   22.0799999       2.48249330E-06
   22.2000008       2.23013785E-06
   22.3199997       1.85949352E-06
   22.4400005       1.40036627E-06
   22.5599995       8.82810355E-07
   22.6800003       3.35957139E-07
   22.7999992      -2.12999211E-07
   22.9200001      -7.39632412E-07
   23.0400009      -1.22291453E-06
   23.1599998      -1.64564187E-06
   23.2800007      -1.99466172E-06
   23.3999996      -2.26091606E-06
   23.5200005      -2.43932300E-06
   23.6399994      -2.52852669E-06
   23.7600002      -2.53054509E-06
   23.8799992      -2.45035312E-06
   24.0000000      -2.29542684E-06
   24.1200008      -2.07528046E-06
   24.2399998      -1.80101824E-06
   24.3600006      -1.48491176E-06
   24.4799995      -1.14001102E-06
   24.6000004      -7.79788479E-07
   24.7199993      -4.17806092E-07
   24.8400002      -6.73945948E-08
   24.9599991       2.58669218E-07
   25.0799999       5.48498065E-07
   25.2000008       7.91448770E-07
   25.3199997       9.78495791E-07
   25.4400005       1.10261158E-06
   25.5599995       1.15913554E-06
   25.6800003       1.14610361E-06
   25.7999992       1.06450591E-06
   25.9200001       9.18434978E-07
   26.0400009       7.15094416E-07
   26.1599998       4.64639555E-07
   26.2800007       1.79836221E-07
   26.3999996      -1.24464691E-07
   26.5200005      -4.32020698E-07
   26.6399994      -7.26028475E-07
   26.7600002      -9.90044100E-07
   26.8799992      -1.20893571E-06
   27.0000000      -1.36980225E-06
   27.1200008      -1.46279183E-06
   27.2399998      -1.48175548E-06
   27.3600006      -1.42468809E-06
   27.4799995      -1.29391503E-06
   27.6000004      -1.09600865E-06
   27.7199993      -8.41435735E-07
   27.8400002      -5.43958379E-07
   27.9599991      -2.19827399E-07
   28.0799999       1.13175489E-07
   28.2000008       4.36784262E-07
   28.3199997       7.33314437E-07
   28.4400005       9.86682153E-07
   28.5599995       1.18331548E-06
   28.6800003       1.31290903E-06
   28.7999992       1.36898268E-06
   28.9200001       1.34922198E-06
   29.0400009       1.25559075E-06
   29.1599998       1.09421546E-06
   29.2800007       8.75055321E-07
   29.3999996       6.11379050E-07
   29.5200005       3.19073848E-07
   29.6399994       1.58200439E-08
   29.7600002      -2.79833188E-07
   29.8799992      -5.49450021E-07
   30.0000000      -7.75705416E-07
   30.1200008      -9.43351836E-07
   30.2399998      -1.04010428E-06
   30.3600006      -1.05739684E-06
   30.4799995      -9.90959961E-07
   30.6000004      -8.41175506E-07
   30.7199993      -6.13173597E-07
   30.8400002      -3.16649533E-07
   30.9599991       3.46065292E-08
   31.0799999       4.23452377E-07
   31.2000008       8.30374006E-07
   31.3199997       1.23464622E-06
   31.4400005       1.61559706E-06
   31.5599995       1.95388907E-06
   31.6800003       2.23272241E-06
   31.7999992       2.43886393E-06
   31.9200001       2.56342605E-06
   32.0400009       2.60232514E-06
   32.1599998       2.55639088E-06
   32.2799988       2.43111072E-06
   32.4000015       2.23604252E-06
   32.5200005       1.98394150E-06
   32.6399994       1.68968654E-06
   32.7599983       1.36909716E-06
   32.8800011       1.03774858E-06
   33.0000000       7.09887615E-07
   33.1199989       3.97539651E-07
   33.2400017       1.09879302E-07
   33.3600006      -1.47089906E-07
   33.4799995      -3.70534366E-07
   33.5999985      -5.60482533E-07
   33.7200012      -7.19258480E-07
   33.8400002      -8.50725883E-07
   33.9599991      -9.59429826E-07
   34.0800018      -1.04973105E-06
   34.2000008      -1.12502607E-06
   34.3199997      -1.18713501E-06
   34.4399986      -1.23592235E-06
   34.5600014      -1.26919008E-06
   34.6800003      -1.28285546E-06
   34.7999992      -1.27139697E-06
   34.9199982      -1.22852532E-06
   35.0400009      -1.14801458E-06
   35.1599998      -1.02460899E-06
   35.2799988      -8.54915982E-07
   35.4000015      -6.38192375E-07
   35.5200005      -3.76939056E-07
   35.6399994      -7.72346311E-08
   35.7599983       2.51239868E-07
   35.8800011       5.95506833E-07
   36.0000000       9.39922700E-07
   36.1199989       1.26709710E-06
   36.2400017       1.55903899E-06
   36.3600006       1.79844619E-06
   36.4799995       1.97003669E-06
   36.5999985       2.06181403E-06
   36.7200012       2.06615960E-06
   36.8400002       1.98064731E-06
   36.9599991       1.80850236E-06
   37.0800018       1.55864234E-06
   37.2000008       1.24527253E-06
   37.3199997       8.87044280E-07
   37.4399986       5.05816388E-07
   37.5600014       1.25101408E-07
   37.6800003      -2.31695083E-07
   37.7999992      -5.43105728E-07
   37.9199982      -7.91354410E-07
   38.0400009      -9.63877937E-07
   38.1599998      -1.05447486E-06
   38.2799988      -1.06396249E-06
   38.4000015      -1.00026182E-06
   38.5200005      -8.77873674E-07
   38.6399994      -7.16762429E-07
   38.7599983      -5.40717849E-07
   38.8800011      -3.75315238E-07
   39.0000000      -2.45635505E-07
   39.1199989      -1.73936272E-07
   39.2400017      -1.77477816E-07
   39.3600006      -2.66701107E-07
   39.4799995      -4.43932436E-07
   39.5999985      -7.02746433E-07
   39.7200012      -1.02806644E-06
   39.8400002      -1.39701524E-06
   39.9599991      -1.78046741E-06
   40.0800018      -2.14518514E-06
   40.2000008      -2.45637239E-06
   40.3199997      -2.68044005E-06
   40.4399986      -2.78775588E-06
   40.5600014      -2.75515049E-06
   40.6800003      -2.56797648E-06
   40.7999992      -2.22154972E-06
   40.9199982      -1.72185401E-06
   41.0400009      -1.08545748E-06
   41.1599998      -3.38648306E-07
   41.2799988       4.84139832E-07
   41.4000015       1.34248444E-06
   41.5200005       2.19254457E-06
   41.6399994       2.98985015E-06
   41.7599983       3.69209806E-06
   41.8800011       4.26176393E-06
   42.0000000       4.66834445E-06
   42.1199989       4.89009562E-06
   42.2400017       4.91516039E-06
   42.3600006       4.74205581E-06
   42.4799995       4.37949939E-06
   42.5999985       3.84563918E-06
   42.7200012       3.16676483E-06
   42.8400002       2.37561017E-06
   42.9599991       1.50938206E-06
   43.0800018       6.07648815E-07
   43.2000008      -2.89783202E-07
   43.3199997      -1.14488046E-06
   43.4399986      -1.92318203E-06
   43.5600014      -2.59530930E-06
   43.6800003      -3.13812825E-06
   43.7999992      -3.53553492E-06
   43.9199982      -3.77885135E-06
   44.0400009      -3.86684269E-06
   44.1599998      -3.80537608E-06
   44.2799988      -3.60676199E-06
   44.4000015      -3.28881879E-06
   44.5200005      -2.87371631E-06
   44.6399994      -2.38665689E-06
   44.7599983      -1.85445697E-06
   44.8800011      -1.30409614E-06
   45.0000000      -7.61310162E-07
   45.1199989      -2.49296562E-07
   45.2400017       2.12393559E-07
   45.3600006       6.08712753E-07
   45.4799995       9.29668602E-07
   45.5999985       1.17053310E-06
   45.7200012       1.33169499E-06
   45.8400002       1.41816429E-06
   45.9599991       1.43877128E-06
   46.0800018       1.40512179E-06
   46.2000008       1.33039964E-06
   46.3199997       1.22812014E-06
   46.4399986       1.11094516E-06
   46.5600014       9.89667228E-07
   46.6800003       8.72455416E-07
   46.7999992       7.64428023E-07
   46.9199982       6.67587017E-07
   47.0400009       5.81109020E-07
   47.1599998       5.01950183E-07
   47.2799988       4.25688938E-07
   47.4000015       3.47501270E-07
   47.5200005       2.63151264E-07
   47.6399994       1.69875435E-07
   47.7599983       6.70521771E-08
   47.8800011      -4.34286100E-08
   48.0000000      -1.57146118E-07
   48.1199989      -2.67489838E-07
   48.2400017      -3.66330084E-07
   48.3600006      -4.44947119E-07
   48.4799995      -4.95117433E-07
   48.5999985      -5.10233804E-07
   48.7200012      -4.86327906E-07
   48.8400002      -4.22870045E-07
   48.9599991      -3.23239078E-07
   49.0800018      -1.94786722E-07
   49.2000008      -4.84616578E-08
   49.3199997       1.01996420E-07
   49.4399986       2.41234488E-07
   49.5600014       3.53733753E-07
   49.6800003       4.25390738E-07
   49.7999992       4.45071379E-07
   49.9199982       4.05973537E-07
   50.0400009       3.06642306E-07
   50.1599998       1.51512410E-07
   50.2799988      -4.91045320E-08
   50.4000015      -2.79616359E-07
   50.5200005      -5.20298727E-07
   50.6399994      -7.48906530E-07
   50.7599983      -9.42609915E-07
   50.8800011      -1.08007862E-06
   51.0000000      -1.14352099E-06
   51.1199989      -1.12048201E-06
   51.2400017      -1.00522595E-06
   51.3600006      -7.99566067E-07
   51.4799995      -5.13050281E-07
   51.5999985      -1.62477022E-07
   51.7200012       2.29230096E-07
   51.8400002       6.34697528E-07
   51.9599991       1.02418869E-06
   52.0800018       1.36792789E-06
   52.2000008       1.63846698E-06
   52.3199997       1.81289840E-06
   52.4399986       1.87473438E-06
   52.5600014       1.81529981E-06
   52.6800003       1.63453274E-06
   52.7999992       1.34112963E-06
   52.9199982       9.52031201E-07
   53.0400009       4.91292951E-07
   53.1599998      -1.15707319E-08
   53.2799988      -5.23638562E-07
   53.4000015      -1.01087699E-06
   53.5200005      -1.44050796E-06
   53.6399994      -1.78328071E-06
   53.7599983      -2.01548960E-06
   53.8800011      -2.12060331E-06
   54.0000000      -2.09040059E-06
   54.1199989      -1.92555149E-06
   54.2400017      -1.63561094E-06
   54.3600006      -1.23844370E-06
   54.4799995      -7.59119985E-07
   54.5999985      -2.28361401E-07
   54.7200012       3.19369917E-07
   54.8400002       8.48026787E-07
   54.9599991       1.32225750E-06
   55.0800018       1.70968724E-06
   55.2000008       1.98307362E-06
   55.3199997       2.12221425E-06
   55.4399986       2.11548786E-06
   55.5600014       1.96091764E-06
   55.6800003       1.66666791E-06
   55.7999992       1.25089946E-06
   55.9199982       7.40946575E-07
   56.0400009       1.71818925E-07
   56.1599998      -4.15924234E-07
   56.2799988      -9.78821959E-07
   56.4000015      -1.47352807E-06
   56.5200005      -1.85999409E-06
   56.6399994      -2.10458279E-06
   56.7599983      -2.18286118E-06
   56.8800011      -2.08182723E-06
   57.0000000      -1.80135191E-06
   57.1199989      -1.35467519E-06
   57.2400017      -7.67867277E-07
   57.3600006      -7.82472185E-08
   57.4799995       6.68141411E-07
   57.5999985       1.41982366E-06
   57.7200012       2.12369423E-06
   57.8400002       2.72901480E-06
   57.9599991       3.19127275E-06
   58.0800018       3.47556875E-06
   58.2000008       3.55924612E-06
   58.3199997       3.43354282E-06
   58.4399986       3.10413407E-06
   58.5600014       2.59054150E-06
   58.6800003       1.92448351E-06
   58.7999992       1.14733291E-06
   58.9199982       3.06930417E-07
   59.0400009      -5.45964213E-07
   59.1599998      -1.36127289E-06
   59.2799988      -2.09296240E-06
   59.4000015      -2.70191458E-06
   59.5200005      -3.15811849E-06
   59.6399994      -3.44206205E-06
   59.7599983      -3.54529311E-06
   59.8800011      -3.47018545E-06
   60.0000000      -3.22901337E-06
   60.1199989      -2.84248244E-06
   60.2400017      -2.33788955E-06
   60.3600006      -1.74708794E-06
   60.4799995      -1.10441749E-06
   60.5999985      -4.44735150E-07
   60.7200012       1.98364177E-07
   60.8400002       7.94073742E-07
   60.9599991       1.31562729E-06
   61.0800018       1.74127456E-06
   61.2000008       2.05499441E-06
   61.3199997       2.24695941E-06
   61.4399986       2.31376248E-06
   61.5600014       2.25840267E-06
   61.6800003       2.09002019E-06
   61.7999992       1.82336987E-06
   61.9199982       1.47801347E-06
   62.0400009       1.07723667E-06
   62.1599998       6.46713204E-07
   62.2799988       2.12961737E-07
   62.4000015      -1.98317224E-07
   62.5200005      -5.63919741E-07
   62.6399994      -8.64700098E-07
   62.7599983      -1.08688027E-06
   62.8800011      -1.22297763E-06
   63.0000000      -1.27224814E-06
   63.1199989      -1.24058374E-06
   63.2400017      -1.13985129E-06
   63.3600006      -9.86725922E-07
   63.4799995      -8.01117039E-07
   63.5999985      -6.04342063E-07
   63.7200012      -4.17224072E-07
   63.8400002      -2.58301611E-07
   63.9599991      -1.42324325E-07
   64.0800018      -7.91696309E-08
   64.1999969      -7.32665129E-08
   64.3199997      -1.23549299E-07
   64.4400024      -2.23904678E-07
   64.5599976      -3.64023009E-07
   64.6800003      -5.30525881E-07
   64.8000031      -7.08227674E-07
   64.9199982      -8.81390406E-07
   65.0400009      -1.03485490E-06
   65.1600037      -1.15496709E-06
   65.2799988      -1.23025973E-06
   65.4000015      -1.25189649E-06
   65.5199966      -1.21391020E-06
   65.6399994      -1.11329962E-06
   65.7600021      -9.50042079E-07
   65.8799973      -7.27076667E-07
   66.0000000      -4.50284489E-07
   66.1200027      -1.28464535E-07
   66.2399979       2.26730634E-07
   66.3600006       6.00954593E-07
   66.4800034       9.77493642E-07
   66.5999985       1.33782362E-06
   66.7200012       1.66243979E-06
   66.8399963       1.93196320E-06
   66.9599991       2.12848227E-06
   67.0800018       2.23703341E-06
   67.1999969       2.24708560E-06
   67.3199997       2.15385921E-06
   67.4400024       1.95929988E-06
   67.5599976       1.67254461E-06
   67.6800003       1.30975741E-06
   67.8000031       8.93272102E-07
   67.9199982       4.50057286E-07
   68.0400009       9.60556612E-09
   68.1600037      -3.98576219E-07
   68.2799988      -7.47633635E-07
   68.4000015      -1.01590808E-06
   68.5199966      -1.18907315E-06
   68.6399994      -1.26160671E-06
   68.7600021      -1.23740551E-06
   68.8799973      -1.12943587E-06
   69.0000000      -9.58426199E-07
   69.1200027      -7.50710115E-07
   69.2399979      -5.35438062E-07
   69.3600006      -3.41452591E-07
   69.4800034      -1.94168507E-07
   69.5999985      -1.12806944E-07
   69.7200012      -1.08296540E-07
   69.8399963      -1.82081465E-07
   69.9599991      -3.25971257E-07
   70.0800018      -5.23048584E-07
   70.1999969      -7.49527715E-07
   70.3199997      -9.77347781E-07
   70.4400024      -1.17720322E-06
   70.5599976      -1.32167168E-06
   70.6800003      -1.38809355E-06
   70.8000031      -1.36090034E-06
   70.9199982      -1.23315840E-06
   71.0400009      -1.00719785E-06
   71.1600037      -6.94297228E-07
   71.2799988      -3.13509673E-07
   71.4000015       1.10201192E-07
   71.5199966       5.48279388E-07
   71.6399994       9.71085001E-07
   71.7600021       1.35032792E-06
   71.8799973       1.66119958E-06
   72.0000000       1.88403192E-06
   72.1200027       2.00538329E-06
   72.2399979       2.01852981E-06
   72.3600006       1.92340735E-06
   72.4800034       1.72609907E-06
   72.5999985       1.43800094E-06
   72.7200012       1.07479912E-06