  -30.0000000       0.00000000    
  -29.8799992       0.00000000    
  -29.7600002       0.00000000    
  -29.6399994       0.00000000    
  -29.5200005      -0.00000000    
  -29.3999996      -2.80259693E-45
  -29.2800007       8.54792063E-44
  -29.1599998       4.37205121E-43
  -29.0400009       8.01542722E-43
  -28.9200001      -2.27851130E-42
  -28.7999992      -1.51144052E-41
  -28.6800003      -3.57989719E-41
  -28.5599995      -3.04936559E-41
  -28.4400005       7.33986123E-41
  -28.3199997       3.33499225E-40
  -28.2000008       6.60579103E-40
  -28.0799999       7.06802334E-40
  -27.9599991      -2.38192713E-41
  -27.8400002      -1.74900545E-39
  -27.7199993      -3.95678482E-39
  -27.6000004      -5.65870384E-39
  -27.4799995      -6.78249897E-39
  -27.3600006      -9.63619845E-39
  -27.2399998      -1.72893213E-38
  -27.1200008      -2.55593168E-38
  -27.0000000      -1.01504694E-38
  -26.8799992       7.93010439E-38
  -26.7600002       2.97031307E-37
  -26.6399994       6.33313680E-37
  -26.5200005       9.12643404E-37
  -26.3999996       7.22576347E-37
  -26.2800007      -5.12367138E-37
  -26.1599998      -3.20182915E-36
  -26.0400009      -7.00530707E-36
  -25.9200001      -1.02125606E-35
  -25.7999992      -9.56015407E-36
  -25.6800003      -1.06443385E-36
  -25.5599995       1.77866515E-35
  -25.4400005       4.48315293E-35
  -25.3199997       7.03744992E-35
  -25.2000008       7.68692548E-35
  -25.0799999       4.33593059E-35
  -24.9599991      -4.45323867E-35
  -24.8400002      -1.81160107E-34
  -24.7199993      -3.29525551E-34
  -24.6000004      -4.19908301E-34
  -24.4799995      -3.65347938E-34
  -24.3600006      -9.54888155E-35
  -24.2399998       3.98691409E-34
  -24.1200008       1.02610233E-33
  -24.0000000       1.58440255E-33
  -23.8799992       1.79424427E-33
  -23.7600002       1.38264566E-33
  -23.6399994       1.98698310E-34
  -23.5200005      -1.67453817E-33
  -23.3999996      -3.85729398E-33
  -23.2800007      -5.69783418E-33
  -23.1599998      -6.40007964E-33
  -23.0400009      -5.23779234E-33
  -22.9200001      -1.80953874E-33
  -22.7999992       3.72884845E-33
  -22.6800003       1.05191882E-32
  -22.5599995       1.69971002E-32
  -22.4400005       2.10665221E-32
  -22.3199997       2.04716602E-32
  -22.2000008       1.33621558E-32
  -22.0799999      -9.93765587E-34
  -21.9599991      -2.14645195E-32
  -21.8400002      -4.44939717E-32
  -21.7199993      -6.40331681E-32
  -21.6000004      -7.22993031E-32
  -21.4799995      -6.15736166E-32
  -21.3600006      -2.69328619E-32
  -21.2399998       3.06686741E-32
  -21.1200008       1.02035754E-31
  -21.0000000       1.69407238E-31
  -20.8799992       2.09250314E-31
  -20.7600002       1.98403886E-31
  -20.6399994       1.22473499E-31
  -20.5200005      -1.59926535E-32
  -20.3999996      -1.92814610E-31
  -20.2800007      -3.63904416E-31
  -20.1599998      -4.74642190E-31
  -20.0400009      -4.75470162E-31
  -19.9200001      -3.39511944E-31
  -19.7999992      -7.63336644E-32
  -19.6800003       2.63748771E-31
  -19.5599995       5.97924653E-31
  -19.4400005       8.30821540E-31
  -19.3199997       8.81126303E-31
  -19.2000008       7.07224186E-31
  -19.0799999       3.23975412E-31
  -18.9599991      -1.94931229E-31
  -18.8400002      -7.30614690E-31
  -18.7199993      -1.14588638E-30
  -18.6000004      -1.31923474E-30
  -18.4799995      -1.17791004E-30
  -18.3600006      -7.21925953E-31
  -18.2399998      -3.21836247E-32
  -18.1200008       7.41108281E-31
  -18.0000000       1.40904063E-30
  -17.8799992       1.78752047E-30
  -17.7600002       1.74285751E-30
  -17.6399994       1.22697658E-30
  -17.5200005       2.93189144E-31
  -17.3999996      -9.08763962E-31
  -17.2800007      -2.15127315E-30
  -17.1599998      -3.15068296E-30
  -17.0400009      -3.58821400E-30
  -16.9200001      -3.13984265E-30
  -16.7999992      -1.53789606E-30
  -16.6800003       1.31428826E-30
  -16.5599995       5.17857886E-30
  -16.4400005       9.31921690E-30
  -16.3199997       1.24384703E-29
  -16.2000008       1.28262420E-29
  -16.0799999       8.79997039E-30
  -15.9600000      -5.91641024E-31
  -15.8400002      -1.47691141E-29
  -15.7200003      -3.10221393E-29
  -15.6000004      -4.44546189E-29
  -15.4799995      -4.87492110E-29
  -15.3599997      -3.78254717E-29
  -15.2399998      -8.17292220E-30
  -15.1199999       3.86763626E-29
  -15.0000000       9.43287385E-29
  -14.8800001       1.43272420E-28
  -14.7600002       1.64984897E-28
  -14.6400003       1.38804829E-28
  -14.5200005       5.12304287E-29
  -14.3999996      -9.57250919E-29
  -14.2799997      -2.77617481E-28
  -14.1599998      -4.45419111E-28
  -14.0400000      -5.31442553E-28
  -13.9200001      -4.65285175E-28
  -13.8000002      -1.98820080E-28
  -13.6800003       2.64828921E-28
  -13.5600004       8.47532146E-28
  -13.4399996       1.38933129E-27
  -13.3199997       1.66935274E-27
  -13.1999998       1.45972393E-27
  -13.0799999       6.07689109E-28
  -12.9600000      -8.71685811E-28
  -12.8400002      -2.72181703E-27
  -12.7200003      -4.42602891E-27
  -12.6000004      -5.27656117E-27
  -12.4799995      -4.54664721E-27
  -12.3599997      -1.75087235E-27
  -12.2399998       3.05989169E-27
  -12.1199999       9.06050276E-27
  -12.0000000       1.45846761E-26
  -11.8800001       1.73354665E-26
  -11.7600002       1.49290678E-26
  -11.6400003       5.73297075E-27
  -11.5200005      -1.01668879E-26
  -11.3999996      -3.01622785E-26
  -11.2799997      -4.88558014E-26
  -11.1599998      -5.86882377E-26
  -11.0400000      -5.16628212E-26
  -10.9200001      -2.20656767E-26
  -10.8000002       3.03305216E-26
  -10.6800003       9.75155523E-26
  -10.5600004       1.62163178E-25
  -10.4399996       1.99421399E-25
  -10.3199997       1.82297078E-25
  -10.1999998       9.04054689E-26
  -10.0799999      -7.94686828E-26
  -9.96000004      -3.03937926E-25
  -9.84000015      -5.28626244E-25
  -9.72000027      -6.72787271E-25
  -9.60000038      -6.45533260E-25
  -9.47999954      -3.73384876E-25
  -9.35999966       1.65278538E-25
  -9.23999977       9.07772122E-25
  -9.11999989       1.68901411E-24
  -9.00000000       2.25087733E-24
  -8.88000011       2.28861782E-24
  -8.76000023       1.53561320E-24
  -8.64000034      -1.25074229E-25
  -8.52000046      -2.54847077E-24
  -8.39999962      -5.25345746E-24
  -8.27999973      -7.43015938E-24
  -8.15999985      -8.06484610E-24
  -8.03999996      -6.19451093E-24
  -7.92000008      -1.26428647E-24
  -7.80000019       6.48708524E-24
  -7.67999983       1.57330403E-23
  -7.55999994       2.39999003E-23
  -7.44000006       2.79726511E-23
  -7.32000017       2.42318995E-23
  -7.19999981       1.03720970E-23
  -7.07999992      -1.37011318E-23
  -6.96000004      -4.46504896E-23
  -6.84000015      -7.52234851E-23
  -6.71999979      -9.48637929E-23
  -6.59999990      -9.17188127E-23
  -6.48000002      -5.60169119E-23
  -6.36000013       1.56801645E-23
  -6.23999977       1.16361477E-22
  -6.11999989       2.26017182E-22
  -6.00000000       3.12221428E-22
  -5.88000011       3.35098798E-22
  -5.76000023       2.57055387E-22
  -5.63999987       5.62679085E-23
  -5.51999998      -2.58766193E-22
  -5.40000010      -6.37894536E-22
  -5.28000021      -9.86369159E-22
  -5.15999985      -1.17511002E-21
  -5.03999996      -1.06689305E-21
  -4.92000008      -5.57265884E-22
  -4.80000019       3.76302126E-22
  -4.67999983       1.62912212E-21
  -4.55999994       2.94417753E-21
  -4.44000006       3.92447037E-21
  -4.32000017       4.09595040E-21
  -4.19999981       3.02398067E-21
  -4.07999992       4.70622400E-22
  -3.96000004      -3.43862656E-21
  -3.83999991      -8.08716956E-21
  -3.72000003      -1.23367736E-20
  -3.59999990      -1.46478338E-20
  -3.48000002      -1.33809954E-20
  -3.35999990      -7.26769610E-21
  -3.24000001       4.02098756E-21
  -3.11999989       1.93400611E-20
  -3.00000000       3.57524909E-20
  -2.88000011       4.86232888E-20
  -2.75999999       5.22824030E-20
  -2.64000010       4.13081913E-20
  -2.51999998       1.23161498E-20
  -2.40000010      -3.40680571E-20
  -2.27999997      -9.15712655E-20
  -2.16000009      -1.47620423E-19
  -2.03999996      -1.84314077E-19
  -1.91999996      -1.81450262E-19
  -1.79999995      -1.21615040E-19
  -1.67999995       3.27952738E-21
  -1.55999994       1.85323806E-19
  -1.44000006       3.95740524E-19
  -1.32000005       5.84069335E-19
  -1.20000005       6.83448520E-19
  -1.08000004       6.23134646E-19
 -0.959999979       3.47769425E-19
 -0.839999974      -1.59290416E-19
 -0.720000029      -8.53628730E-19
 -0.600000024      -1.61537837E-18
 -0.479999989      -2.25047907E-18
 -0.360000014      -2.51410690E-18
 -0.239999995      -2.15923029E-18
 -0.119999997      -1.00731708E-18
  -1.11022302E-15   9.69427037E-19
  0.119999997       3.57279118E-18
  0.239999995       6.33478446E-18
  0.360000014       8.53152347E-18
  0.479999989       9.27594549E-18
  0.600000024       7.69740281E-18
  0.720000029       3.19532860E-18
  0.839999974      -4.27207354E-18
  0.959999979      -1.39295412E-17
   1.08000004      -2.40418176E-17
   1.20000005      -3.19752655E-17
   1.32000005      -3.45348667E-17
   1.44000006      -2.86018939E-17
   1.55999994      -1.20262590E-17
   1.67999995       1.53612320E-17
   1.79999995       5.08406016E-17
   1.91999996       8.82882161E-17
   2.03999996       1.18361459E-16
   2.16000009       1.29628480E-16
   2.27999997       1.10739235E-16
   2.40000010       5.34980285E-17
   2.51999998      -4.35987446E-17
   2.64000010      -1.72098487E-16
   2.75999999      -3.11573420E-16
   2.88000011      -4.29892805E-16
   3.00000000      -4.86664580E-16
   3.11999989      -4.40265306E-16
   3.24000001      -2.58121168E-16
   3.35999990       7.10632452E-17
   3.48000002       5.25459853E-16
   3.59999990       1.04182427E-15
   3.72000003       1.51430126E-15
   3.83999991       1.80351017E-15
   3.96000004       1.75778765E-15
   4.07999992       1.24619129E-15
   4.19999981       1.99793076E-16
   4.32000017      -1.34561803E-15
   4.44000006      -3.21537328E-15
   4.55999994      -5.08206809E-15
   4.67999983      -6.48346673E-15
   4.80000019      -6.88039527E-15
   4.92000008      -5.75644904E-15
   5.03999996      -2.75199438E-15
   5.15999985       2.18612152E-15
   5.28000021       8.66864276E-15
   5.40000010       1.57792938E-14
   5.51999998       2.20812934E-14
   5.63999987       2.57486496E-14
   5.76000023       2.48395851E-14
   5.88000011       1.77031631E-14
   6.00000000       3.47616477E-15
   6.11999989      -1.74093358E-14
   6.23999977      -4.28192604E-14
   6.36000013      -6.87416839E-14
   6.48000002      -8.94678686E-14
   6.59999990      -9.82225775E-14
   6.71999979      -8.82703809E-14
   6.84000015      -5.44291276E-14
   6.96000004       5.19210656E-15
   7.07999992       8.75280073E-14
   7.19999981       1.83352723E-13
   7.32000017       2.76963402E-13
   7.44000006       3.47139743E-13
   7.55999994       3.69633686E-13
   7.67999983       3.21209232E-13
   7.80000019       1.84934574E-13
   7.92000008      -4.39367780E-14
   8.03999996      -3.52508875E-13
   8.15999985      -7.06484350E-13
   8.27999973      -1.04946574E-12
   8.39999962      -1.30651902E-12
   8.52000046      -1.39274703E-12
   8.64000034      -1.22686952E-12
   8.76000023      -7.48806453E-13
   8.88000011       6.08595070E-14
   9.00000000       1.16273224E-12
   9.11999989       2.44574651E-12
   9.23999977       3.72385369E-12
   9.35999966       4.74604514E-12
   9.47999954       5.22217469E-12
   9.60000038       4.86485071E-12
   9.72000027       3.44472454E-12
   9.84000015       8.53184656E-13
   9.96000004      -2.83679395E-12
   10.0799999      -7.32340490E-12
   10.1999998      -1.20552882E-11
   10.3199997      -1.62493942E-11
   10.4399996      -1.89562567E-11
   10.5600004      -1.91757374E-11
   10.6800003      -1.60182926E-11
   10.8000002      -8.89742533E-12
   10.9200001       2.27066239E-12
   11.0400000       1.68924597E-11
   11.1599998       3.35848675E-11
   11.2799997       5.01628079E-11
   11.3999996       6.37581585E-11
   11.5200005       7.10886905E-11
   11.6400003       6.88761478E-11
   11.7600002       5.43881155E-11
   11.8800001       2.60511942E-11
   12.0000000      -1.59426986E-11
   12.1199999      -6.91354890E-11
   12.2399998      -1.28516073E-10
   12.3599997      -1.86551927E-10
   12.4799995      -2.33622177E-10
   12.6000004      -2.58896043E-10
   12.7200003      -2.51644261E-10
   12.8400002      -2.02903139E-10
   12.9600000      -1.07338118E-10
   13.0799999       3.49157266E-11
   13.1999998       2.16711205E-10
   13.3199997       4.22947066E-10
   13.4399996       6.30518859E-10
   13.5600004       8.09401768E-10
   13.6800003       9.25006571E-10
   13.8000002       9.41807188E-10
   13.9200001       8.28065783E-10
   14.0400000       5.61287850E-10
   14.1599998       1.33855940E-10
   14.2799997      -4.41869014E-10
   14.3999996      -1.12978793E-09
   14.5200005      -1.86847360E-09
   14.6400003      -2.57249622E-09
   14.7600002      -3.13721760E-09
   14.8800001      -3.44729378E-09
   15.0000000      -3.38872952E-09
   15.1199999      -2.86384716E-09
   15.2399998      -1.80802906E-09
   15.3599997      -2.06623385E-10
   15.4799995       1.89000038E-09
   15.6000004       4.35548930E-09
   15.7200003       6.98292935E-09
   15.8400002       9.48871826E-09
   15.9600000       1.15264607E-08
   16.0799999       1.27116877E-08
   16.2000008       1.26571464E-08
   16.3199997       1.10172111E-08
   16.4400005       7.53860174E-09
   16.5599995       2.11331108E-09
   16.6800003      -5.17152854E-09
   16.7999992      -1.39929481E-08
   16.9200001      -2.37671092E-08
   17.0400009      -3.36462058E-08
   17.1599998      -4.25427018E-08
   17.2800007      -4.91846706E-08
   17.3999996      -5.22036210E-08
   17.5200005      -5.02533943E-08
   17.6399994      -4.21550226E-08
   17.7600002      -2.70591780E-08
   17.8799992      -4.61406868E-09
   18.0000000       2.48762930E-08
   18.1200008       6.03207511E-08
   18.2399998       9.97549421E-08
   18.3600006       1.40318548E-07
   18.4799995       1.78311382E-07
   18.6000004       2.09340428E-07
   18.7199993       2.28563763E-07
   18.8400002       2.31030413E-07
   18.9599991       2.12106812E-07
   19.0799999       1.67971564E-07
   19.2000008       9.61516093E-08
   19.3199997      -3.93518107E-09
   19.4400005      -1.30471904E-07
   19.5599995      -2.78813957E-07
   19.6800003      -4.41185136E-07
   19.7999992      -6.06541391E-07
   19.9200001      -7.60638670E-07
   20.0400009      -8.86329701E-07
   20.1599998      -9.64105084E-07
   20.2800007      -9.72871931E-07
   20.3999996      -8.90954198E-07
   20.5200005      -6.97271446E-07
   20.6399994      -3.72646269E-07
   20.7600002       9.88322952E-08
   20.8799992       7.28466773E-07
   21.0000000       1.52171742E-06
   21.1200008       2.47716207E-06
   21.2399998       3.58573038E-06
   21.3600006       4.83027952E-06
   21.4799995       6.18556669E-06
   21.6000004       7.61864658E-06
   21.7199993       9.08969832E-06
   21.8400002       1.05532690E-05
   21.9599991       1.19598808E-05
   22.0799999       1.32579289E-05
   22.2000008       1.43957986E-05
   22.3199997       1.53240671E-05
   22.4400005       1.59977062E-05
   22.5599995       1.63781533E-05
   22.6800003       1.64351313E-05
   22.7999992       1.61481621E-05
   22.9200001       1.55076450E-05
   23.0400009       1.45154681E-05
   23.1599998       1.31851384E-05
   23.2800007       1.15413932E-05
   23.3999996       9.61935257E-06
   23.5200005       7.46324486E-06
   23.6399994       5.12477891E-06
   23.7600002       2.66125085E-06
   23.8799992       1.33481748E-07
   24.0000000      -2.39631458E-06
   24.1200008      -4.86663839E-06
   24.2399998      -7.21869810E-06
   24.3600006      -9.39821439E-06
   24.4799995      -1.13569749E-05
   24.6000004      -1.30541030E-05
   24.7199993      -1.44570067E-05
   24.8400002      -1.55420184E-05
   24.9599991      -1.62947090E-05
   25.0799999      -1.67099133E-05
   25.2000008      -1.67915041E-05
   25.3199997      -1.65519123E-05
   25.4400005      -1.60114723E-05
   25.5599995      -1.51975846E-05
   25.6800003      -1.41437640E-05
   25.7999992      -1.28885777E-05
   25.9200001      -1.14744953E-05
   26.0400009      -9.94668517E-06
   26.1599998      -8.35176706E-06
   26.2800007      -6.73652858E-06
   26.3999996      -5.14664816E-06
   26.5200005      -3.62542664E-06
   26.6399994      -2.21256187E-06
   26.7600002      -9.43001680E-07
   26.8799992       1.54096497E-07
   27.0000000       1.05625247E-06
   27.1200008       1.74836180E-06
   27.2399998       2.22316407E-06
   27.3600006       2.48144715E-06
   27.4799995       2.53196254E-06
   27.6000004       2.39103179E-06
   27.7199993       2.08184838E-06
   27.8400002       1.63348147E-06
   27.9599991       1.07961534E-06
   28.0799999       4.57068325E-07
   28.2000008      -1.95846155E-07
   28.3199997      -8.41045846E-07
   28.4400005      -1.44241051E-06
   28.5599995      -1.96743167E-06
   28.6800003      -2.38869757E-06
   28.7999992      -2.68513304E-06
   28.9200001      -2.84292764E-06
   29.0400009      -2.85609940E-06
   29.1599998      -2.72665807E-06
   29.2800007      -2.46435980E-06
   29.3999996      -2.08605888E-06
   29.5200005      -1.61469438E-06
   29.6399994      -1.07796097E-06
   29.7600002      -5.06738900E-07
   29.8799992       6.66333833E-08
   30.0000000       6.10147993E-07
   30.1200008       1.09387975E-06
   30.2399998       1.49160599E-06
   30.3600006       1.78220591E-06
   30.4799995       1.95076359E-06
   30.6000004       1.98931639E-06
   30.7199993       1.89721072E-06
   30.8400002       1.68105021E-06
   30.9599991       1.35424204E-06
   31.0799999       9.36173592E-07
   31.2000008       4.51067990E-07
   31.3199997      -7.34127212E-08
   31.4400005      -6.07735217E-07
   31.5599995      -1.12214366E-06
   31.6800003      -1.58829585E-06
   31.7999992      -1.98079579E-06
   31.9200001      -2.27853729E-06
   32.0400009      -2.46578793E-06
   32.1599998      -2.53295480E-06
   32.2799988      -2.47699859E-06
   32.4000015      -2.30147361E-06
   32.5200005      -2.01620719E-06
   32.6399994      -1.63663992E-06
   32.7599983      -1.18287221E-06
   32.8800011      -6.78483957E-07
   33.0000000      -1.49196310E-07
   33.1199989       3.78540562E-07
   33.2400017       8.78951766E-07
   33.3600006       1.32825483E-06
   33.4799995       1.70581973E-06
   33.5999985       1.99511283E-06
   33.7200012       2.18438481E-06
   33.8400002       2.26707948E-06
   33.9599991       2.24195537E-06
   34.0800018       2.11293741E-06
   34.2000008       1.88872411E-06
   34.3199997       1.58218847E-06
   34.4399986       1.20962295E-06
   34.5600014       7.89878641E-07
   34.6800003       3.43447596E-07
   34.7999992      -1.08462743E-07
   34.9199982      -5.44824900E-07
   35.0400009      -9.45625288E-07
   35.1599998      -1.29261355E-06
   35.2799988      -1.56995372E-06
   35.4000015      -1.76476954E-06
   35.5200005      -1.86758120E-06
   35.6399994      -1.87263117E-06
   35.7599983      -1.77809989E-06
   35.8800011      -1.58620549E-06
   36.0000000      -1.30318483E-06
   36.1199989      -9.39145139E-07
   36.2400017      -5.07778680E-07
   36.3600006      -2.59314223E-08
   36.4799995       4.86976774E-07
   36.5999985       1.00967952E-06
   36.7200012       1.51992435E-06
   36.8400002       1.99544343E-06
   36.9599991       2.41499424E-06
   37.0800018       2.75942671E-06
   37.2000008       3.01271143E-06
   37.3199997       3.16286628E-06
   37.4399986       3.20271397E-06
   37.5600014       3.13040800E-06
   37.6800003       2.94967026E-06
   37.7999992       2.66970733E-06
   37.9199982       2.30478850E-06
   38.0400009       1.87349440E-06
   38.1599998       1.39766951E-06
   38.2799988       9.01140538E-07
   38.4000015       4.08281352E-07
   38.5200005      -5.74760328E-08
   38.6399994      -4.75078508E-07
   38.7599983      -8.27129099E-07
   38.8800011      -1.10090673E-06
   39.0000000      -1.28904821E-06
   39.1199989      -1.38983876E-06
   39.2400017      -1.40708903E-06
   39.3600006      -1.34960771E-06
   39.4799995      -1.23031759E-06
   39.5999985      -1.06508764E-06
   39.7200012      -8.71382497E-07
   39.8400002      -6.66840151E-07
   39.9599991      -4.67899270E-07
   40.0800018      -2.88586818E-07
   40.2000008      -1.39562644E-07
   40.3199997      -2.74923675E-08
   40.4399986       4.52107898E-08
   40.5600014       8.02686202E-08
   40.6800003       8.30727060E-08
   40.7999992       6.19278353E-08
   40.9199982       2.70866014E-08
   41.0400009      -1.03294076E-08
   41.1599998      -3.94189215E-08
   41.2799988      -5.05039601E-08
   41.4000015      -3.59624899E-08
   41.5200005       9.17097509E-09
   41.6399994       8.68727525E-08
   41.7599983       1.96072648E-07
   41.8800011       3.32852323E-07
   42.0000000       4.90856792E-07
   42.1199989       6.61859190E-07
   42.2400017       8.36412426E-07
   42.3600006       1.00451814E-06
   42.4799995       1.15625448E-06
   42.5999985       1.28231545E-06
   42.7200012       1.37443590E-06
   42.8400002       1.42569172E-06
   42.9599991       1.43068667E-06
   43.0800018       1.38564792E-06
   43.2000008       1.28846159E-06
   43.3199997       1.13868191E-06
   43.4399986       9.37539312E-07
   43.5600014       6.87965382E-07
   43.6800003       3.94636771E-07
   43.7999992       6.40250306E-08
   43.9199982      -2.95571681E-07
   44.0400009      -6.74050398E-07
   44.1599998      -1.05961533E-06
   44.2799988      -1.43901400E-06
   44.4000015      -1.79792119E-06
   44.5200005      -2.12147688E-06
   44.6399994      -2.39496921E-06
   44.7599983      -2.60462616E-06
   44.8800011      -2.73846740E-06
   45.0000000      -2.78714901E-06
   45.1199989      -2.74472541E-06
   45.2400017      -2.60925481E-06
   45.3600006      -2.38317898E-06
   45.4799995      -2.07342714E-06
   45.5999985      -1.69121256E-06
   45.7200012      -1.25152076E-06
   45.8400002      -7.72312319E-07
   45.9599991      -2.73496340E-07
   46.0800018       2.24254080E-07
   46.2000008       7.00748444E-07
   46.3199997       1.13748968E-06
   46.4399986       1.51875008E-06
   46.5600014       1.83242605E-06
   46.6800003       2.07060384E-06
   46.7999992       2.22979634E-06
   46.9199982       2.31084255E-06
   47.0400009       2.31849071E-06
   47.1599998       2.26071643E-06
   47.2799988       2.14785427E-06
   47.4000015       1.99162355E-06
   47.5200005       1.80415350E-06
   47.6399994       1.59708804E-06
   47.7599983       1.38085170E-06
   47.8800011       1.16412434E-06
   48.0000000       9.53552728E-07
   48.1199989       7.53695645E-07
   48.2400017       5.67175448E-07
   48.3600006       3.94984880E-07
   48.4799995       2.36888937E-07
   48.5999985       9.18543748E-08
   48.7200012      -4.15540953E-08
   48.8400002      -1.64859358E-07
   48.9599991      -2.79469248E-07
   49.0800018      -3.86593456E-07
   49.2000008      -4.87267528E-07
   49.3199997      -5.82451094E-07
   49.4399986      -6.73157501E-07
   49.5600014      -7.60564774E-07
   49.6800003      -8.46062676E-07
   49.7999992      -9.31201384E-07
   49.9199982      -1.01752391E-06
   50.0400009      -1.10628628E-06
   50.1599998      -1.19809135E-06
   50.2799988      -1.29248258E-06
   50.4000015      -1.38755684E-06
   50.5200005      -1.47966546E-06
   50.6399994      -1.56326610E-06
   50.7599983      -1.63098139E-06
   50.8800011      -1.67389817E-06
   51.0000000      -1.68211329E-06
   51.1199989      -1.64550477E-06
   51.2400017      -1.55467546E-06
   51.3600006      -1.40198836E-06
   51.4799995      -1.18259720E-06
   51.5999985      -8.95361950E-07
   51.7200012      -5.43542285E-07
   51.8400002      -1.35177970E-07
   51.9599991       3.16910416E-07
   52.0800018       7.95535072E-07
   52.2000008       1.27995975E-06
   52.3199997       1.74707839E-06
   52.4399986       2.17286674E-06
   52.5600014       2.53399526E-06
   52.6800003       2.80946938E-06
   52.7999992       2.98215878E-06
   52.9199982       3.04008472E-06
   53.0400009       2.97735710E-06
   53.1599998       2.79467872E-06
   53.2799988       2.49937898E-06
   53.4000015       2.10497410E-06
   53.5200005       1.63029392E-06
   53.6399994       1.09825078E-06
   53.7599983       5.34351329E-07
   53.8800011      -3.49272895E-08
   54.0000000      -5.83772419E-07
   54.1199989      -1.08855886E-06
   54.2400017      -1.52915220E-06
   54.3600006      -1.88990555E-06
   54.4799995      -2.16029275E-06
   54.5999985      -2.33514857E-06
   54.7200012      -2.41452221E-06
   54.8400002      -2.40317740E-06
   54.9599991      -2.30980140E-06
   55.0800018      -2.14600800E-06
   55.2000008      -1.92522566E-06
   55.3199997      -1.66157963E-06
   55.4399986      -1.36886445E-06
   55.5600014      -1.05969548E-06
   55.6800003      -7.44905378E-07
   55.7999992      -4.33225608E-07
   55.9199982      -1.31262951E-07
   56.0400009       1.56255069E-07
   56.1599998       4.26019056E-07
   56.2799988       6.75541060E-07
   56.4000015       9.02518593E-07
   56.5200005       1.10425981E-06
   56.6399994       1.27726503E-06
   56.7599983       1.41703890E-06
   56.8800011       1.51818085E-06
   57.0000000       1.57476222E-06
   57.1199989       1.58096259E-06
   57.2400017       1.53189649E-06
   57.3600006       1.42453428E-06
   57.4799995       1.25859708E-06
   57.5999985       1.03730156E-06
   57.7200012       7.67836639E-07
   57.8400002       4.61477839E-07
   57.9599991       1.33279570E-07
   58.0800018      -1.98667038E-07
   58.2000008      -5.14377575E-07
   58.3199997      -7.93434708E-07
   58.4399986      -1.01664125E-06
   58.5600014      -1.16771207E-06
   58.6800003      -1.23483403E-06
   58.7999992      -1.21193136E-06
   58.9199982      -1.09948962E-06
   59.0400009      -9.04836156E-07
   59.1599998      -6.41820236E-07
   59.2799988      -3.29902122E-07
   59.4000015       7.28453742E-09
   59.5200005       3.43772797E-07
   59.6399994       6.53339896E-07
   59.7599983       9.11627694E-07
   59.8800011       1.09810912E-06
   60.0000000       1.19771653E-06
   60.1199989       1.20198547E-06
   60.2400017       1.10961707E-06
   60.3600006       9.26425969E-07
   60.4799995       6.64701588E-07
   60.5999985       3.42069313E-07
   60.7200012      -2.00143209E-08
   60.8400002      -3.97972656E-07
   60.9599991      -7.67855397E-07
   61.0800018      -1.10696283E-06
   61.2000008      -1.39521728E-06
   61.3199997      -1.61619505E-06
   61.4399986      -1.75777507E-06
   61.5600014      -1.81241387E-06
   61.6800003      -1.77708694E-06
   61.7999992      -1.65297615E-06
   61.9199982      -1.44498699E-06
   62.0400009      -1.16118474E-06
   62.1599998      -8.12224584E-07
   62.2799988      -4.10826857E-07
   62.4000015       2.86768902E-08
   62.5200005       4.90728837E-07
   62.6399994       9.58884470E-07
   62.7599983       1.41614566E-06
   62.8800011       1.84532894E-06
   63.0000000       2.22950803E-06
   63.1199989       2.55255350E-06
   63.2400017       2.79977212E-06
   63.3600006       2.95862742E-06
   63.4799995       3.01949535E-06
   63.5999985       2.97639372E-06
   63.7200012       2.82760834E-06
   63.8400002       2.57613601E-06
   63.9599991       2.22987410E-06
   64.0800018       1.80150130E-06
   64.1999969       1.30801516E-06
   64.3199997       7.69937856E-07
   64.4400024       2.10220421E-07
   64.5599976      -3.47079236E-07
   64.6800003      -8.78246169E-07
   64.8000031      -1.36136907E-06
   64.9199982      -1.77768675E-06
   65.0400009      -2.11270344E-06
   65.1600037      -2.35697416E-06
   65.2799988      -2.50649418E-06
   65.4000015      -2.56266435E-06
   65.5199966      -2.53184362E-06
   65.6399994      -2.42453984E-06
   65.7600021      -2.25433109E-06
   65.8799973      -2.03661398E-06
   66.0000000      -1.78730943E-06
   66.1200027      -1.52163409E-06
   66.2399979      -1.25304371E-06
   66.3600006      -9.92423566E-07
   66.4800034      -7.47578838E-07
   66.5999985      -5.23042274E-07
   66.7200012      -3.20188974E-07
   66.8399963      -1.37625179E-07
   66.9599991       2.82021979E-08
   67.0800018       1.82240015E-07
   67.1999969       3.29978235E-07
   67.3199997       4.76585768E-07
   67.4400024       6.26103201E-07
   67.5599976       7.80754590E-07
   67.6800003       9.40434063E-07
   67.8000031       1.10241137E-06
   67.9199982       1.26128623E-06
   68.0400009       1.40920497E-06
   68.1600037       1.53633346E-06
   68.2799988       1.63156096E-06
   68.4000015       1.68338818E-06
   68.5199966       1.68093311E-06
   68.6399994       1.61497724E-06
   68.7600021       1.47896151E-06
   68.8799973       1.26984753E-06
   69.0000000       9.88762054E-07
   69.1200027       6.41359463E-07
   69.2399979       2.37862736E-07
   69.3600006      -2.07236027E-07
   69.4800034      -6.75801402E-07
   69.5999985      -1.14697070E-06
   69.7200012      -1.59829722E-06
   69.8399963      -2.00704335E-06
   69.9599991      -2.35153402E-06
   70.0800018      -2.61247715E-06
   70.1999969      -2.77416325E-06
   70.3199997      -2.82546489E-06
   70.4400024      -2.76057199E-06
   70.5599976      -2.57941542E-06
   70.6800003      -2.28775980E-06
   70.8000031      -1.89695709E-06
   70.9199982      -1.42338661E-06
   71.0400009      -8.87616693E-07
   71.1600037      -3.13346391E-07
   71.2799988       2.73805654E-07
   71.4000015       8.47589945E-07
   71.5199966       1.38241671E-06
   71.6399994       1.85457884E-06
   71.7600021       2.24334531E-06
   71.8799973       2.53187909E-06
   72.0000000       2.70794885E-06
   72.1200027       2.76441847E-06
   72.2399979       2.69950829E-06
   72.3600006       2.51683946E-06
   72.4800034       2.22526751E-06
   72.5999985       1.83851967E-06
   72.7200012       1.37464735E-06