  -30.0000000       0.00000000    
  -29.8799992       0.00000000    
  -29.7600002       0.00000000    
  -29.6399994       0.00000000    
  -29.5200005      -1.40129846E-45
  -29.3999996      -1.12103877E-44
  -29.2800007      -1.05097385E-43
  -29.1599998      -3.13890856E-43
  -29.0400009      -4.38606419E-43
  -28.9200001      -2.71851902E-43
  -28.7999992       1.13224916E-42
  -28.6800003       3.77229547E-42
  -28.5599995      -7.73516752E-43
  -28.4400005      -3.20434920E-41
  -28.3199997      -9.48945307E-41
  -28.2000008      -9.01735562E-41
  -28.0799999       3.36883361E-40
  -27.9599991       1.83395637E-39
  -27.8400002       4.81352328E-39
  -27.7199993       7.83132322E-39
  -27.6000004       5.09382081E-39
  -27.4799995      -1.46700521E-38
  -27.3600006      -6.31892225E-38
  -27.2399998      -1.36517265E-37
  -27.1200008      -1.89105497E-37
  -27.0000000      -1.14029239E-37
  -26.8799992       2.37515695E-37
  -26.7600002       9.60603236E-37
  -26.6399994       1.91820137E-36
  -26.5200005       2.54627778E-36
  -26.3999996       1.80184203E-36
  -26.2800007      -1.53513973E-36
  -26.1599998      -8.06763570E-36
  -26.0400009      -1.66073790E-35
  -25.9200001      -2.31248079E-35
  -25.7999992      -2.06972599E-35
  -25.6800003      -1.40964464E-36
  -25.5599995       3.93203779E-35
  -25.4400005       9.66844104E-35
  -25.3199997       1.51026825E-34
  -25.2000008       1.66822014E-34
  -25.0799999       1.00277887E-34
  -24.9599991      -8.20800754E-35
  -24.8400002      -3.76094665E-34
  -24.7199993      -7.12897972E-34
  -24.6000004      -9.47446426E-34
  -24.4799995      -8.80176925E-34
  -24.3600006      -3.22909194E-34
  -24.2399998       7.96739694E-34
  -24.1200008       2.32254615E-33
  -24.0000000       3.80134118E-33
  -23.8799992       4.51965235E-33
  -23.7600002       3.68612878E-33
  -23.6399994       7.50026421E-34
  -23.5200005      -4.22405005E-33
  -23.3999996      -1.02683590E-32
  -23.2800007      -1.54779148E-32
  -23.1599998      -1.73541978E-32
  -23.0400009      -1.35382581E-32
  -22.9200001      -2.78840723E-33
  -22.7999992       1.40896061E-32
  -22.6800003       3.37282566E-32
  -22.5599995       5.04252752E-32
  -22.4400005       5.72643719E-32
  -22.3199997       4.80131373E-32
  -22.2000008       1.93928503E-32
  -22.0799999      -2.69018729E-32
  -21.9599991      -8.31181652E-32
  -21.8400002      -1.35849860E-31
  -21.7199993      -1.68181068E-31
  -21.6000004      -1.63401767E-31
  -21.4799995      -1.09701141E-31
  -21.3600006      -4.89724722E-33
  -21.2399998       1.39938335E-31
  -21.1200008       2.99122476E-31
  -21.0000000       4.34254556E-31
  -20.8799992       4.99953875E-31
  -20.7600002       4.53382576E-31
  -20.6399994       2.66569816E-31
  -20.5200005      -6.05928605E-32
  -20.3999996      -4.89964477E-31
  -20.2800007      -9.41410732E-31
  -20.1599998      -1.29956928E-30
  -20.0400009      -1.43343270E-30
  -19.9200001      -1.22795873E-30
  -19.7999992      -6.22692930E-31
  -19.6800003       3.51890299E-31
  -19.5599995       1.55238577E-30
  -19.4400005       2.72650855E-30
  -19.3199997       3.55046314E-30
  -19.2000008       3.69858032E-30
  -19.0799999       2.93372677E-30
  -18.9599991       1.19738986E-30
  -18.8400002      -1.32694354E-30
  -18.7199993      -4.20182619E-30
  -18.6000004      -6.79041972E-30
  -18.4799995      -8.37673449E-30
  -18.3600006      -8.33204238E-30
  -18.2399998      -6.29176524E-30
  -18.1200008      -2.29831790E-30
  -18.0000000       3.13246750E-30
  -17.8799992       9.04977102E-30
  -17.7600002       1.42160397E-29
  -17.6399994       1.73425101E-29
  -17.5200005       1.73651639E-29
  -17.3999996       1.37009061E-29
  -17.2800007       6.42622035E-30
  -17.1599998      -3.66075610E-30
  -17.0400009      -1.51050475E-29
  -16.9200001      -2.59684359E-29
  -16.7999992      -3.40772209E-29
  -16.6800003      -3.73113177E-29
  -16.5599995      -3.39188763E-29
  -16.4400005      -2.28591033E-29
  -16.3199997      -4.17713328E-30
  -16.2000008       2.06156672E-29
  -16.0799999       4.82441539E-29
  -15.9600000       7.36133036E-29
  -15.8400002       9.01930687E-29
  -15.7200003       9.10119380E-29
  -15.6000004       7.02977550E-29
  -15.4799995       2.55839631E-29
  -15.3599997      -4.01630211E-29
  -15.2399998      -1.17067086E-28
  -15.1199999      -1.88288324E-28
  -15.0000000      -2.32058212E-28
  -14.8800001      -2.26112529E-28
  -14.7600002      -1.54217576E-28
  -14.6400003      -1.36823992E-29
  -14.5200005       1.78098578E-28
  -14.3999996       3.80675124E-28
  -14.2799997       5.33848425E-28
  -14.1599998       5.69157028E-28
  -14.0400000       4.29492633E-28
  -13.9200001       9.37955207E-29
  -13.8000002      -3.99667128E-28
  -13.6800003      -9.40650089E-28
  -13.5600004      -1.35462160E-27
  -13.4399996      -1.43746904E-27
  -13.3199997      -1.01682428E-27
  -13.1999998      -2.94421485E-29
  -13.0799999       1.40666745E-27
  -12.9600000       2.95414523E-27
  -12.8400002       4.08122929E-27
  -12.7200003       4.16863376E-27
  -12.6000004       2.69623971E-27
  -12.4799995      -5.21638703E-28
  -12.3599997      -5.11435704E-27
  -12.2399998      -1.00311506E-26
  -12.1199999      -1.36039464E-26
  -12.0000000      -1.38604032E-26
  -11.8800001      -9.09248937E-27
  -11.7600002       1.40155372E-27
  -11.6400003       1.65839932E-26
  -11.5200005       3.32186615E-26
  -11.3999996       4.59804157E-26
  -11.2799997       4.83644859E-26
  -11.1599998       3.44512906E-26
  -11.0400000       1.30329711E-27
  -10.9200001      -4.85598892E-26
  -10.8000002      -1.05449404E-25
  -10.6800003      -1.52521511E-25
  -10.5600004      -1.68320669E-25
  -10.4399996      -1.32139280E-25
  -10.3199997      -3.16333223E-26
  -10.1999998       1.28904506E-25
  -10.0799999       3.22170079E-25
  -9.96000004       4.96444466E-25
  -9.84000015       5.81941359E-25
  -9.72000027       5.06316961E-25
  -9.60000038       2.18295217E-25
  -9.47999954      -2.84861075E-25
  -9.35999966      -9.33554068E-25
  -9.23999977      -1.57545857E-24
  -9.11999989      -1.98822945E-24
  -9.00000000      -1.92172255E-24
  -8.88000011      -1.16924056E-24
  -8.76000023       3.42569504E-25
  -8.64000034       2.46649294E-24
  -8.52000046       4.78040479E-24
  -8.39999962       6.59901277E-24
  -8.27999973       7.07830296E-24
  -8.15999985       5.42103005E-24
  -8.03999996       1.16229849E-24
  -7.92000008      -5.52152068E-24
  -7.80000019      -1.35707789E-23
  -7.67999983      -2.09771352E-23
  -7.55999994      -2.49971688E-23
  -7.44000006      -2.27039927E-23
  -7.32000017      -1.18538389E-23
  -7.19999981       8.06701626E-24
  -7.07999992       3.48684282E-23
  -6.96000004       6.31011037E-23
  -6.84000015       8.42892702E-23
  -6.71999979       8.82389075E-23
  -6.59999990       6.54997394E-23
  -6.48000002       1.07309972E-23
  -6.36000013      -7.36778731E-23
  -6.23999977      -1.74756382E-22
  -6.11999989      -2.68123371E-22
  -6.00000000      -3.20369061E-22
  -5.88000011      -2.95380623E-22
  -5.76000023      -1.64449504E-22
  -5.63999987       8.12500921E-23
  -5.51999998       4.18603145E-22
  -5.40000010       7.84854249E-22
  -5.28000021       1.07866079E-21
  -5.15999985       1.17360834E-21
  -5.03999996       9.45763597E-22
  -4.92000008       3.13250127E-22
  -4.80000019      -7.18775069E-22
  -4.67999983      -2.01905013E-21
  -4.55999994      -3.31173108E-21
  -4.44000006      -4.19364899E-21
  -4.32000017      -4.19850101E-21
  -4.19999981      -2.91007632E-21
  -4.07999992      -1.12705656E-22
  -3.96000004       4.04950106E-21
  -3.83999991       8.94878318E-21
  -3.72000003       1.34388633E-20
  -3.59999990       1.59605824E-20
  -3.48000002       1.48208535E-20
  -3.35999990       8.64090478E-21
  -3.24000001      -3.08278138E-21
  -3.11999989      -1.94208889E-20
  -3.00000000      -3.76249952E-20
  -2.88000011      -5.31061941E-20
  -2.75999999      -5.99519893E-20
  -2.64000010      -5.20741603E-20
  -2.51999998      -2.49359703E-20
  -2.40000010       2.23872232E-20
  -2.27999997       8.52695451E-20
  -2.16000009       1.52344348E-19
  -2.03999996       2.05751587E-19
  -1.91999996       2.23403596E-19
  -1.79999995       1.83521586E-19
  -1.67999995       7.11474459E-20
  -1.55999994      -1.14372493E-19
  -1.44000006      -3.52668247E-19
  -1.32000005      -5.98683445E-19
  -1.20000005      -7.84504193E-19
  -1.08000004      -8.28618201E-19
 -0.959999979      -6.53267181E-19
 -0.839999974      -2.08528135E-19
 -0.720000029       5.00774626E-19
 -0.600000024       1.39176405E-18
 -0.479999989       2.29207074E-18
 -0.360000014       2.94878577E-18
 -0.239999995       3.06430423E-18
 -0.119999997       2.36079208E-18
  -1.11022302E-15   6.67677236E-19
  0.119999997      -1.98237494E-18
  0.239999995      -5.27229454E-18
  0.360000014      -8.56352791E-18
  0.479999989      -1.09327113E-17
  0.600000024      -1.13040708E-17
  0.720000029      -8.68233421E-18
  0.839999974      -2.46512106E-18
  0.959999979       7.21735764E-18
   1.08000004       1.92173793E-17
   1.20000005       3.12418805E-17
   1.32000005       3.99845046E-17
   1.44000006       4.15930136E-17
   1.55999994       3.24879156E-17
   1.67999995       1.04590305E-17
   1.79999995      -2.41397888E-17
   1.91999996      -6.73804188E-17
   2.03999996      -1.11286550E-16
   2.16000009      -1.44251286E-16
   2.27999997      -1.52610575E-16
   2.40000010      -1.23437542E-16
   2.51999998      -4.83229683E-17
   2.64000010       7.24525116E-17
   2.75999999       2.26300681E-16
   2.88000011       3.86451768E-16
   3.00000000       5.13045156E-16
   3.11999989       5.58127797E-16
   3.24000001       4.74868270E-16
   3.35999990       2.30319243E-16
   3.48000002      -1.80131985E-16
   3.59999990      -7.19684244E-16
   3.72000003      -1.30236144E-15
   3.83999991      -1.79475630E-15
   3.96000004      -2.03071787E-15
   4.07999992      -1.84051217E-15
   4.19999981      -1.09290607E-15
   4.32000017       2.55283290E-16
   4.44000006       2.11171730E-15
   4.55999994       4.21599426E-15
   4.67999983       6.13628487E-15
   4.80000019       7.30776574E-15
   4.92000008       7.12005985E-15
   5.03999996       5.05154780E-15
   5.15999985       8.35970750E-16
   5.28000021      -5.36702268E-15
   5.40000010      -1.28378279E-14
   5.51999998      -2.02467556E-14
   5.63999987      -2.57332997E-14
   5.76000023      -2.71466826E-14
   5.88000011      -2.24529579E-14
   6.00000000      -1.02759911E-14
   6.11999989       9.50499377E-15
   6.23999977       3.52219881E-14
   6.36000013       6.31006545E-14
   6.48000002       8.73177466E-14
   6.59999990       1.00565369E-13
   6.71999979       9.51858899E-14
   6.84000015       6.48328708E-14
   6.96000004       6.47543559E-15
   7.07999992      -7.75846740E-14
   7.19999981      -1.78140624E-13
   7.32000017      -2.78480364E-13
   7.44000006      -3.55263616E-13
   7.55999994      -3.81237170E-13
   7.67999983      -3.29872251E-13
   7.80000019      -1.81614150E-13
   7.92000008       6.90361125E-14
   8.03999996       4.06854238E-13
   8.15999985       7.91249228E-13
   8.27999973       1.15539989E-12
   8.39999962       1.41074804E-12
   8.52000046       1.45785066E-12
   8.64000034       1.20360232E-12
   8.76000023       5.83508719E-13
   8.88000011      -4.13834657E-13
   9.00000000      -1.72435774E-12
   9.11999989      -3.19359903E-12
   9.23999977      -4.57497538E-12
   9.35999966      -5.54626007E-12
   9.47999954      -5.74735355E-12
   9.60000038      -4.83924012E-12
   9.72000027      -2.57977949E-12
   9.84000015       1.09279513E-12
   9.96000004       5.98235047E-12
   10.0799999       1.15804042E-11
   10.1999998       1.70530499E-11
   10.3199997       2.12857336E-11
   10.4399996       2.29967729E-11
   10.5600004       2.09212092E-11
   10.6800003       1.40540409E-11
   10.8000002       1.92743954E-12
   10.9200001      -1.51176224E-11
   11.0400000      -3.57163743E-11
   11.1599998      -5.73786921E-11
   11.2799997      -7.65551442E-11
   11.3999996      -8.89120791E-11
   11.5200005      -8.98331756E-11
   11.6400003      -7.51311791E-11
   11.7600002      -4.19126123E-11
   11.8800001       1.05045512E-11
   12.0000000       7.97585956E-11
   12.1199999       1.59861360E-10
   12.2399998       2.41035913E-10
   12.3599997       3.10125259E-10
   12.4799995       3.51673496E-10
   12.6000004       3.49701990E-10
   12.7200003       2.90099389E-10
   12.8400002       1.63426161E-10
   12.9600000      -3.21839395E-11
   13.0799999      -2.88443658E-10
   13.1999998      -5.85134163E-10
   13.3199997      -8.89617380E-10
   13.4399996      -1.15806342E-09
   13.5600004      -1.33867673E-09
   13.6800003      -1.37698764E-09
   13.8000002      -1.22299704E-09
   13.9200001      -8.39646463E-10
   14.0400000      -2.11768131E-10
   14.1599998       6.45606624E-10
   14.2799997       1.68088610E-09
   14.3999996       2.80286239E-09
   14.5200005       3.88220700E-09
   14.6400003       4.75844963E-09
   14.7600002       5.25288835E-09
   14.8800001       5.18720800E-09
   15.0000000       4.40681269E-09
   15.1199999       2.80706502E-09
   15.2399998       3.59844848E-10
   15.3599997      -2.86276092E-09
   15.4799995      -6.67120226E-09
   15.6000004      -1.07512141E-08
   15.7200003      -1.46697410E-08
   15.8400002      -1.78963759E-08
   15.9600000      -1.98413730E-08
   16.0799999      -1.99096437E-08
   16.2000008      -1.75682331E-08
   16.3199997      -1.24228388E-08
   16.4400005      -4.29692193E-09
   16.5599995       6.69452627E-09
   16.6800003       2.00856096E-08
   16.7999992       3.50238878E-08
   16.9200001       5.02672961E-08
   17.0400009       6.42208349E-08
   17.1599998       7.50177591E-08
   17.2800007       8.06464371E-08
   17.3999996       7.91200989E-08
   17.5200005       6.86816222E-08
   17.6399994       4.80311790E-08
   17.7600002       1.65598824E-08
   17.8799992      -2.54310724E-08
   18.0000000      -7.65487513E-08
   18.1200008      -1.34188141E-07
   18.2399998      -1.94495911E-07
   18.3600006      -2.52438070E-07
   18.4799995      -3.01985835E-07
   18.6000004      -3.36426922E-07
   18.7199993      -3.48800711E-07
   18.8400002      -3.32445495E-07
   18.9599991      -2.81635465E-07
   19.0799999      -1.92274896E-07
   19.2000008      -6.26084002E-08
   19.3199997       1.06102355E-07
   19.4400005       3.08987921E-07
   19.5599995       5.37121082E-07
   19.6800003       7.77258890E-07
   19.7999992       1.01182206E-06
   19.9200001       1.21914582E-06
   20.0400009       1.37402242E-06
   20.1599998       1.44854005E-06
   20.2800007       1.41320152E-06
   20.3999996       1.23829136E-06
   20.5200005       8.95436415E-07
   20.6399994       3.59291107E-07
   20.7600002      -3.90734158E-07
   20.8799992      -1.36879589E-06
   21.0000000      -2.58108685E-06
   21.1200008      -4.02454862E-06
   21.2399998      -5.68591440E-06
   21.3600006      -7.54116400E-06
   21.4799995      -9.55544056E-06
   21.6000004      -1.16834726E-05
   21.7199993      -1.38705191E-05
   21.8400002      -1.60538038E-05
   21.9599991      -1.81644318E-05
   22.0799999      -2.01296789E-05
   22.2000008      -2.18756140E-05
   22.3199997      -2.33299088E-05
   22.4400005      -2.44247294E-05
   22.5599995      -2.50996018E-05
   22.6800003      -2.53040798E-05
   22.7999992      -2.50001412E-05
   22.9200001      -2.41641446E-05
   23.0400009      -2.27883265E-05
   23.1599998      -2.08816764E-05
   23.2800007      -1.84702149E-05
   23.3999996      -1.55966063E-05
   23.5200005      -1.23191294E-05
   23.6399994      -8.71003976E-06
   23.7600002      -4.85337750E-06
   23.8799992      -8.42300039E-07
   24.0000000       3.22394931E-06
   24.1200008       7.24332813E-06
   24.2399998       1.11144127E-05
   24.3600006       1.47398096E-05
   24.4799995       1.80294319E-05
   24.6000004       2.09035206E-05
   24.7199993       2.32952953E-05
   24.8400002       2.51531364E-05
   24.9599991       2.64422015E-05
   25.0799999       2.71454446E-05
   25.2000008       2.72639900E-05
   25.3199997       2.68168133E-05
   25.4400005       2.58398268E-05
   25.5599995       2.43843224E-05
   25.6800003       2.25148833E-05
   25.7999992       2.03068485E-05
   25.9200001       1.78434093E-05
   26.0400009       1.52124758E-05
   26.1599998       1.25034239E-05
   26.2800007       9.80387085E-06
   26.3999996       7.19658919E-06
   26.5200005       4.75669276E-06
   26.6399994       2.54919405E-06
   26.7600002       6.27028442E-07
   26.8799992      -9.70389465E-07
   27.0000000      -2.21803293E-06
   27.1200008      -3.10553514E-06
   27.2399998      -3.63687286E-06
   27.3600006      -3.82949383E-06
   27.4799995      -3.71294254E-06
   27.6000004      -3.32705577E-06
   27.7199993      -2.71981889E-06
   27.8400002      -1.94497716E-06
   27.9599991      -1.05951267E-06
   28.0799999      -1.21091063E-07
   28.2000008       8.14415785E-07
   28.3199997       1.69523196E-06
   28.4400005       2.47571484E-06
   28.5599995       3.11805275E-06
   28.6800003       3.59355795E-06
   28.7999992       3.88351600E-06
   28.9200001       3.97956319E-06
   29.0400009       3.88358876E-06
   29.1599998       3.60717786E-06
   29.2800007       3.17063245E-06
   29.3999996       2.60161869E-06
   29.5200005       1.93352048E-06
   29.6399994       1.20357765E-06
   29.7600002       4.50903116E-07
   29.8799992      -2.85523100E-07
   30.0000000      -9.68784434E-07
   30.1200008      -1.56579199E-06
   30.2399998      -2.04880189E-06
   30.3600006      -2.39661790E-06
   30.4799995      -2.59543071E-06
   30.6000004      -2.63926518E-06
   30.7199993      -2.53002668E-06
   30.8400002      -2.27715941E-06
   30.9599991      -1.89694663E-06
   31.0799999      -1.41150258E-06
   31.2000008      -8.47511274E-07
   31.3199997      -2.34790917E-07
   31.4400005       3.95246332E-07
   31.5599995       1.01115734E-06
   31.6800003       1.58297792E-06
   31.7999992       2.08361075E-06
   31.9200001       2.49002574E-06
   32.0400009       2.78422544E-06
   32.1599998       2.95393875E-06
   32.2799988       2.99301973E-06
   32.4000015       2.90154480E-06
   32.5200005       2.68561985E-06
   32.6399994       2.35691482E-06
   32.7599983       1.93196433E-06
   32.8800011       1.43127625E-06
   33.0000000       8.78296134E-07
   33.1199989       2.98284732E-07
   33.2400017      -2.82840119E-07
   33.3600006      -8.39645281E-07
   33.4799995      -1.34826257E-06
   33.5999985      -1.78736559E-06
   33.7200012      -2.13901376E-06
   33.8400002      -2.38933694E-06
   33.9599991      -2.52904465E-06
   34.0800018      -2.55374994E-06
   34.2000008      -2.46410355E-06
   34.3199997      -2.26573889E-06
   34.4399986      -1.96903079E-06
   34.5600014      -1.58867942E-06
   34.6800003      -1.14312832E-06
   34.7999992      -6.53835571E-07
   34.9199982      -1.44413292E-07
   35.0400009       3.60335150E-07
   35.1599998       8.35454216E-07
   35.2799988       1.25691474E-06
   35.4000015       1.60269167E-06
   35.5200005       1.85379838E-06
   35.6399994       1.99522765E-06
   35.7599983       2.01675130E-06
   35.8800011       1.91353251E-06
   36.0000000       1.68650809E-06
   36.1199989       1.34250195E-06
   36.2400017       8.94056427E-07
   36.3600006       3.58962325E-07
   36.4799995      -2.40494842E-07
   36.5999985      -8.78550452E-07
   36.7200012      -1.52719099E-06
   36.8400002      -2.15753744E-06
   36.9599991      -2.74130639E-06
   37.0800018      -3.25226370E-06
   37.2000008      -3.66758309E-06
   37.3199997      -3.96902715E-06
   37.4399986      -4.14387205E-06
   37.5600014      -4.18551826E-06
   37.6800003      -4.09374843E-06
   37.7999992      -3.87462114E-06
   37.9199982      -3.54000804E-06
   38.0400009      -3.10680571E-06
   38.1599998      -2.59588842E-06
   38.2799988      -2.03086756E-06
   38.4000015      -1.43674254E-06
   38.5200005      -8.38536494E-07
   38.6399994      -2.59996170E-07
   38.7599983       2.77560673E-07
   38.8800011       7.56189536E-07
   39.0000000       1.16200613E-06
   39.1199989       1.48558820E-06
   39.2400017       1.72208661E-06
   39.3600006       1.87105388E-06
   39.4799995       1.93602568E-06
   39.5999985       1.92389416E-06
   39.7200012       1.84413307E-06
   39.8400002       1.70793783E-06
   39.9599991       1.52734526E-06
   40.0800018       1.31439811E-06
   40.2000008       1.08041024E-06
   40.3199997       8.35382934E-07
   40.4399986       5.87601960E-07
   40.5600014       3.43433840E-07
   40.6800003       1.07319806E-07
   40.7999992      -1.18050011E-07
   40.9199982      -3.31416004E-07
   41.0400009      -5.32526826E-07
   41.1599998      -7.21666822E-07
   41.2799988      -8.99187285E-07
   41.4000015      -1.06509071E-06
   41.5200005      -1.21871017E-06
   41.6399994      -1.35851087E-06
   41.7599983      -1.48202878E-06
   41.8800011      -1.58594446E-06
   42.0000000      -1.66627660E-06
   42.1199989      -1.71866964E-06
   42.2400017      -1.73874014E-06
   42.3600006      -1.72244597E-06
   42.4799995      -1.66644384E-06
   42.5999985      -1.56840429E-06
   42.7200012      -1.42726253E-06
   42.8400002      -1.24339192E-06
   42.9599991      -1.01869591E-06
   43.0800018      -7.56624161E-07
   43.2000008      -4.62118095E-07
   43.3199997      -1.41501957E-07
   43.4399986       1.97671753E-07
   43.5600014       5.46811634E-07
   43.6800003       8.96505810E-07
   43.7999992       1.23676853E-06
   43.9199982       1.55731448E-06
   44.0400009       1.84786893E-06
   44.1599998       2.09851169E-06
   44.2799988       2.30005776E-06
   44.4000015       2.44447119E-06
   44.5200005       2.52529458E-06
   44.6399994       2.53807434E-06
   44.7599983       2.48075094E-06
   44.8800011       2.35397806E-06
   45.0000000       2.16132548E-06
   45.1199989       1.90933201E-06
   45.2400017       1.60737147E-06
   45.3600006       1.26731277E-06
   45.4799995       9.02968338E-07
   45.5999985       5.29353201E-07
   45.7200012       1.61789075E-07
   45.8400002      -1.85081333E-07
   45.9599991      -4.98292138E-07
   46.0800018      -7.67475285E-07
   46.2000008      -9.85612360E-07
   46.3199997      -1.14953377E-06
   46.4399986      -1.26010161E-06
   46.5600014      -1.32203627E-06
   46.6800003      -1.34338541E-06
   46.7999992      -1.33466722E-06
   46.9199982      -1.30775845E-06
   47.0400009      -1.27462761E-06
   47.1599998      -1.24603503E-06
   47.2799988      -1.23033215E-06
   47.4000015      -1.23248901E-06
   47.5200005      -1.25345764E-06
   47.6399994      -1.28995146E-06
   47.7599983      -1.33467802E-06
   47.8800011      -1.37701682E-06
   48.0000000      -1.40408770E-06
   48.1199989      -1.40211114E-06
   48.2400017      -1.35792811E-06
   48.3600006      -1.26052987E-06
   48.4799995      -1.10243548E-06
   48.5999985      -8.80775076E-07
   48.7200012      -5.97957126E-07
   48.8400002      -2.61840682E-07
   48.9599991       1.14616348E-07
   49.0800018       5.14210399E-07
   49.2000008       9.16771739E-07
   49.3199997       1.30074989E-06
   49.4399986       1.64495430E-06
   49.5600014       1.93027927E-06
   49.6800003       2.14124634E-06
   49.7999992       2.26721386E-06
   49.9199982       2.30314004E-06
   50.0400009       2.24983000E-06
   50.1599998       2.11365364E-06
   50.2799988       1.90578101E-06
   50.4000015       1.64101948E-06
   50.5200005       1.33639571E-06
   50.6399994       1.00963155E-06
   50.7599983       6.77682181E-07
   50.8800011       3.55487884E-07
   51.0000000       5.50599957E-08
   51.1199989      -2.15019838E-07
   51.2400017      -4.49661343E-07
   51.3600006      -6.46917101E-07
   51.4799995      -8.07302968E-07
   51.5999985      -9.32905550E-07
   51.7200012      -1.02642139E-06
   51.8400002      -1.09027371E-06
   51.9599991      -1.12594307E-06
   52.0800018      -1.13361295E-06
   52.2000008      -1.11218583E-06
   52.3199997      -1.05967013E-06
   52.4399986      -9.73884653E-07
   52.5600014      -8.53373535E-07
   52.6800003      -6.98391432E-07
   52.7999992      -5.11796316E-07
   52.9199982      -2.99693113E-07
   53.0400009      -7.16935276E-08
   53.1599998       1.59297656E-07
   53.2799988       3.77800205E-07
   53.4000015       5.66943982E-07
   53.5200005       7.10019833E-07
   53.6399994       7.92236790E-07
   53.7599983       8.02486852E-07
   53.8800011       7.34902017E-07
   54.0000000       5.89998592E-07
   54.1199989       3.75242308E-07
   54.2400017       1.04924105E-07
   54.3600006      -2.00684440E-07
   54.4799995      -5.16845091E-07
   54.5999985      -8.16405418E-07
   54.7200012      -1.07219171E-06
   54.8400002      -1.25950078E-06
   54.9599991      -1.35842959E-06
   55.0800018      -1.35579899E-06
   55.2000008      -1.24646760E-06
   55.3199997      -1.03390016E-06
   55.4399986      -7.29936630E-07
   55.5600014      -3.53792586E-07
   55.6800003       6.95908824E-08
   55.7999992       5.11670521E-07
   55.9199982       9.42670454E-07
   56.0400009       1.33395940E-06
   56.1599998       1.66020629E-06
   56.2799988       1.90112439E-06
   56.4000015       2.04266780E-06
   56.5200005       2.07761582E-06
   56.6399994       2.00554746E-06
   56.7599983       1.83227496E-06
   56.8800011       1.56885460E-06
   57.0000000       1.23032657E-06
   57.1199989       8.34344462E-07
   57.2400017       3.99848773E-07
   57.3600006      -5.40894831E-08
   57.4799995      -5.09168444E-07
   57.5999985      -9.48459615E-07
   57.7200012      -1.35672133E-06
   57.8400002      -1.72047339E-06
   57.9599991      -2.02791011E-06
   58.0800018      -2.26875068E-06
   58.2000008      -2.43412569E-06
   58.3199997      -2.51658025E-06
   58.4399986      -2.51025835E-06
   58.5600014      -2.41127896E-06
   58.6800003      -2.21828782E-06
   58.7999992      -1.93311485E-06
   58.9199982      -1.56144506E-06
   59.0400009      -1.11337215E-06
   59.1599998      -6.03714682E-07
   59.2799988      -5.19698951E-08
   59.4000015       5.18176535E-07
   59.5200005       1.07982794E-06
   59.6399994       1.60432467E-06
   59.7599983       2.06308209E-06
   59.8800011       2.42968304E-06
   60.0000000       2.68203689E-06
   60.1199989       2.80439258E-06
   60.2400017       2.78898460E-06
   60.3600006       2.63710649E-06
   60.4799995       2.35946300E-06
   60.5999985       1.97569943E-06
   60.7200012       1.51310383E-06
   60.8400002       1.00454884E-06
   60.9599991       4.85835756E-07
   61.0800018      -7.33840455E-09
   61.2000008      -4.42512260E-07
   61.3199997      -7.93389802E-07
   61.4399986      -1.04227547E-06
   61.5600014      -1.18175706E-06
   61.6800003      -1.21544190E-06
   61.7999992      -1.15764090E-06
   61.9199982      -1.03199113E-06
   62.0400009      -8.69118026E-07
   62.1599998      -7.03535477E-07
   62.2799988      -5.70066675E-07
   62.4000015      -5.00129204E-07
   62.5200005      -5.18251795E-07
   62.6399994      -6.39182815E-07
   62.7599983      -8.65901882E-07
   62.8800011      -1.18876369E-06
   63.0000000      -1.58589751E-06
   63.1199989      -2.02485739E-06
   63.2400017      -2.46539435E-06
   63.3600006      -2.86309660E-06
   63.4799995      -3.17355739E-06
   63.5999985      -3.35665845E-06
   63.7200012      -3.38054974E-06
   63.8400002      -3.22492269E-06
   63.9599991      -2.88324986E-06
   64.0800018      -2.36376650E-06
   64.1999969      -1.68909366E-06
   64.3199997      -8.94548066E-07
   64.4400024      -2.53102250E-08
   64.5599976       8.67266976E-07
   64.6800003       1.72984585E-06
   64.8000031       2.51138704E-06
   64.9199982       3.16713158E-06
   65.0400009       3.66192830E-06
   65.1600037       3.97263557E-06
   65.2799988       4.08941969E-06
   65.4000015       4.01589523E-06
   65.5199966       3.76815683E-06
   65.6399994       3.37285519E-06
   65.7600021       2.86455270E-06
   65.8799973       2.28262775E-06
   66.0000000       1.66803579E-06
   66.1200027       1.06020786E-06
   66.2399979       4.94332880E-07
   66.3600006      -7.87509224E-10
   66.4800034      -4.04197237E-07
   66.5999985      -7.03513592E-07
   66.7200012      -8.94953530E-07
   66.8399963      -9.82740744E-07
   66.9599991      -9.78018761E-07
   67.0800018      -8.97414452E-07
   67.1999969      -7.61398212E-07
   67.3199997      -5.92577578E-07
   67.4400024      -4.14033593E-07
   67.5599976      -2.47785124E-07
   67.6800003      -1.13434048E-07
   67.8000031      -2.70247824E-08
   67.9199982      -1.33771869E-10
   68.0400009      -3.91986923E-08
   68.1600037      -1.45095882E-07
   68.2799988      -3.12982991E-07
   68.4000015      -5.32425815E-07
   68.5199966      -7.87833471E-07
   68.6399994      -1.05922015E-06
   68.7600021      -1.32330058E-06
   68.8799973      -1.55489977E-06
   69.0000000      -1.72862997E-06
   69.1200027      -1.82075144E-06
   69.2399979      -1.81109965E-06
   69.3600006      -1.68493477E-06
   69.4800034      -1.43455122E-06
   69.5999985      -1.06049004E-06
   69.7200012      -5.72210183E-07
   69.8399963       1.18867014E-08
   69.9599991       6.65131097E-07
   70.0800018       1.35395419E-06
   70.1999969       2.03987702E-06
   70.3199997       2.68198869E-06
   70.4400024       3.23972972E-06
   70.5599976       3.67575967E-06
   70.6800003       3.95868074E-06
   70.8000031       4.06538902E-06
   70.9199982       3.98286238E-06
   71.0400009       3.70923408E-06
   71.1600037       3.25406518E-06
   71.2799988       2.63779930E-06
   71.4000015       1.89044931E-06
   71.5199966       1.04962703E-06
   71.6399994       1.58084603E-07
   71.7600021      -7.39036636E-07
   71.8799973      -1.59703359E-06
   72.0000000      -2.37433255E-06
   72.1200027      -3.03485785E-06
   72.2399979      -3.54992426E-06
   72.3600006      -3.89955312E-06
   72.4800034      -4.07316156E-06
   72.5999985      -4.06962999E-06
   72.7200012      -3.89679371E-06