  -30.0000000       0.00000000    
  -29.8799992       0.00000000    
  -29.7600002       0.00000000    
  -29.6399994       0.00000000    
  -29.5200005       0.00000000    
  -29.3999996       0.00000000    
  -29.2800007       0.00000000    
  -29.1599998       0.00000000    
  -29.0400009       0.00000000    
  -28.9200001      -5.52111595E-43
  -28.7999992       4.33896235E-39
  -28.6800003      -2.92389458E-36
  -28.5599995      -4.82553919E-35
  -28.4400005      -4.79954573E-34
  -28.3199997      -3.67330524E-33
  -28.2000008      -2.22500480E-32
  -28.0799999      -1.05966513E-31
  -27.9599991      -3.93047084E-31
  -27.8400002      -1.10089654E-30
  -27.7199993      -2.05461874E-30
  -27.6000004      -7.55164090E-31
  -27.4799995       1.22857524E-29
  -27.3600006       5.99644668E-29
  -27.2399998       1.76993985E-28
  -27.1200008       3.72883461E-28
  -27.0000000       5.15414868E-28
  -26.8799992       1.12800333E-28
  -26.7600002      -1.89587311E-27
  -26.6399994      -6.93352884E-27
  -26.5200005      -1.53729315E-26
  -26.3999996      -2.31001461E-26
  -26.2800007      -1.64210349E-26
  -26.1599998       3.09875287E-26
  -26.0400009       1.50144377E-25
  -25.9200001       3.45180560E-25
  -25.7999992       5.31160607E-25
  -25.6800003       4.59903097E-25
  -25.5599995      -2.98352273E-25
  -25.4400005      -2.19482600E-24
  -25.3199997      -5.23530025E-24
  -25.2000008      -8.20630779E-24
  -25.0799999      -7.92298051E-24
  -24.9599991       6.93484171E-25
  -24.8400002       2.25461653E-23
  -24.7199993       5.74327090E-23
  -24.6000004       9.29096645E-23
  -24.4799995       9.85017670E-23
  -24.3600006       2.81389746E-23
  -24.2399998      -1.60961375E-22
  -24.1200008      -4.68880191E-22
  -24.0000000      -8.01195509E-22
  -23.8799992      -9.32027169E-22
  -23.7600002      -5.27023052E-22
  -23.6399994       7.27174860E-22
  -23.5200005       2.87271567E-21
  -23.3999996       5.36950279E-21
  -23.2800007       6.88425750E-21
  -23.1599998       5.42052627E-21
  -23.0400009      -9.84953500E-22
  -22.9200001      -1.29555612E-20
  -22.7999992      -2.81772419E-20
  -22.6800003      -4.02826748E-20
  -22.5599995      -3.93105889E-20
  -22.4400005      -1.47181539E-20
  -22.3199997       3.88798055E-20
  -22.2000008       1.14571572E-19
  -22.0799999       1.87722591E-19
  -21.9599991       2.16591104E-19
  -21.8400002       1.52869931E-19
  -21.7199993      -3.68949372E-20
  -21.6000004      -3.43413544E-19
  -21.4799995      -6.91009882E-19
  -21.3600006      -9.33362479E-19
  -21.2399998      -8.82768390E-19
  -21.1200008      -3.78090532E-19
  -21.0000000       6.20235274E-19
  -20.8799992       1.93993210E-18
  -20.7600002       3.15827401E-18
  -20.6399994       3.66182352E-18
  -20.5200005       2.82788071E-18
  -20.3999996       3.04566402E-19
  -20.2800007      -3.69171328E-18
  -20.1599998      -8.19003932E-18
  -20.0400009      -1.15274823E-17
  -19.9200001      -1.17466852E-17
  -19.7999992      -7.30124285E-18
  -19.6800003       2.10807165E-18
  -19.5599995       1.48750632E-17
  -19.4400005       2.73630106E-17
  -19.3199997       3.45747434E-17
  -19.2000008       3.16368890E-17
  -19.0799999       1.57784371E-17
  -18.9599991      -1.18346012E-17
  -18.8400002      -4.51986277E-17
  -18.7199993      -7.41636968E-17
  -18.6000004      -8.69285628E-17
  -18.4799995      -7.38922757E-17
  -18.3600006      -3.17613235E-17
  -18.2399998       3.35651595E-17
  -18.1200008       1.06691542E-16
  -18.0000000       1.65691609E-16
  -17.8799992       1.87970389E-16
  -17.7600002       1.57541299E-16
  -17.6399994       7.15053170E-17
  -17.5200005      -5.65192263E-17
  -17.3999996      -1.97530889E-16
  -17.2800007      -3.13059380E-16
  -17.1599998      -3.64646916E-16
  -17.0400009      -3.24597398E-16
  -16.9200001      -1.85274402E-16
  -16.7999992       3.54810951E-17
  -16.6800003       2.94442787E-16
  -16.5599995       5.29228938E-16
  -16.4400005       6.70303070E-16
  -16.3199997       6.57384441E-16
  -16.2000008       4.57774721E-16
  -16.0799999       8.27676458E-17
  -15.9600000      -4.02945458E-16
  -15.8400002      -8.84382653E-16
  -15.7200003      -1.21599108E-15
  -15.6000004      -1.25814759E-15
  -15.4799995      -9.24406125E-16
  -15.3599997      -2.26644841E-16
  -15.2399998       6.99311407E-16
  -15.1199999       1.60419379E-15
  -15.0000000       2.18035577E-15
  -14.8800001       2.15502334E-15
  -14.7600002       1.39791628E-15
  -14.6400003       6.04353376E-18
  -14.5200005      -1.67375531E-15
  -14.3999996      -3.11054575E-15
  -14.2799997      -3.74129836E-15
  -14.1599998      -3.17213373E-15
  -14.0400000      -1.36257966E-15
  -13.9200001       1.28298926E-15
  -13.8000002       3.97357513E-15
  -13.6800003       5.74954953E-15
  -13.5600004       5.80892315E-15
  -13.4399996       3.83613048E-15
  -13.3199997       2.04905912E-16
  -13.1999998      -4.04793149E-15
  -13.0799999      -7.50826776E-15
  -12.9600000      -8.86114709E-15
  -12.8400002      -7.39940962E-15
  -12.7200003      -3.36600877E-15
  -12.6000004       2.03251803E-15
  -12.4799995       6.99338269E-15
  -12.3599997       9.76637035E-15
  -12.2399998       9.35111414E-15
  -12.1199999       5.95483728E-15
  -12.0000000       9.84124383E-16
  -11.8800001      -3.48490551E-15
  -11.7600002      -5.59081429E-15
  -11.6400003      -4.57401137E-15
  -11.5200005      -1.25921951E-15
  -11.3999996       2.15545766E-15
  -11.2799997       3.02101543E-15
  -11.1599998      -4.36364375E-16
  -11.0400000      -7.93749069E-15
  -10.9200001      -1.67100542E-14
  -10.8000002      -2.21541501E-14
  -10.6800003      -1.95543180E-14
  -10.5600004      -6.29945645E-15
  -10.4399996       1.62598732E-14
  -10.3199997       4.22043890E-14
  -10.1999998       6.22220103E-14
  -10.0799999       6.64635515E-14
  -9.96000004       4.82778287E-14
  -9.84000015       7.53978162E-15
  -9.72000027      -4.77707609E-14
  -9.60000038      -1.02633627E-13
  -9.47999954      -1.38751627E-13
  -9.35999966      -1.40109739E-13
  -9.23999977      -9.86846103E-14
  -9.11999989      -1.84125244E-14
  -9.00000000       8.41052014E-14
  -8.88000011       1.82775832E-13
  -8.76000023       2.48511742E-13
  -8.64000034       2.57411063E-13
  -8.52000046       1.98333483E-13
  -8.39999962       7.75766306E-14
  -8.27999973      -8.09667004E-14
  -8.15999985      -2.40605170E-13
  -8.03999996      -3.60644593E-13
  -7.92000008      -4.07017085E-13
  -7.80000019      -3.61896114E-13
  -7.67999983      -2.29525220E-13
  -7.55999994      -3.63621317E-14
  -7.44000006       1.74870318E-13
  -7.32000017       3.55904596E-13
  -7.19999981       4.65616315E-13
  -7.07999992       4.81110702E-13
  -6.96000004       4.03886451E-13
  -6.84000015       2.59034114E-13
  -6.71999979       8.74171883E-14
  -6.59999990      -6.70743775E-14
  -6.48000002      -1.71474624E-13
  -6.36000013      -2.14583600E-13
  -6.23999977      -2.11076382E-13
  -6.11999989      -1.97068869E-13
  -6.00000000      -2.17773309E-13
  -5.88000011      -3.10270933E-13
  -5.76000023      -4.86119012E-13
  -5.63999987      -7.19037948E-13
  -5.51999998      -9.42140680E-13
  -5.40000010      -1.05721616E-12
  -5.28000021      -9.55831226E-13
  -5.15999985      -5.48998347E-13
  -5.03999996       2.00562128E-13
  -4.92000008       1.25133042E-12
  -4.80000019       2.46917157E-12
  -4.67999983       3.63335512E-12
  -4.55999994       4.46547096E-12
  -4.44000006       4.67923877E-12
  -4.32000017       4.04353027E-12
  -4.19999981       2.44607047E-12
  -4.07999992      -5.72221239E-14
  -3.96000004      -3.22121062E-12
  -3.83999991      -6.62778079E-12
  -3.72000003      -9.74019823E-12
  -3.59999990      -1.19871404E-11
  -3.48000002      -1.28600975E-11
  -3.35999990      -1.20038363E-11
  -3.24000001      -9.28094667E-12
  -3.11999989      -4.79813628E-12
  -3.00000000       1.10800507E-12
  -2.88000011       7.91752514E-12
  -2.75999999       1.49899919E-11
  -2.64000010       2.16256266E-11
  -2.51999998       2.71106401E-11
  -2.40000010       3.07418188E-11
  -2.27999997       3.18365681E-11
  -2.16000009       2.97439608E-11
  -2.03999996       2.38762378E-11
  -1.91999996       1.37768425E-11
  -1.79999995      -7.69360541E-13
  -1.67999995      -1.95928256E-11
  -1.55999994      -4.19869417E-11
  -1.44000006      -6.65806230E-11
  -1.32000005      -9.12716847E-11
  -1.20000005      -1.13249063E-10
  -1.08000004      -1.29115260E-10
 -0.959999979      -1.35099848E-10
 -0.839999974      -1.27334879E-10
 -0.720000029      -1.02149345E-10
 -0.600000024      -5.63369941E-11
 -0.479999989       1.26408883E-11
 -0.360000014       1.06539132E-10
 -0.239999995       2.26299493E-10
 -0.119999997       3.72090858E-10
  -1.11022302E-15   5.43390055E-10
  0.119999997       7.39073303E-10
  0.239999995       9.57499746E-10
  0.360000014       1.19658028E-09
  0.479999989       1.45384638E-09
  0.600000024       1.72653747E-09
  0.720000029       2.01173189E-09
  0.839999974       2.30653052E-09
  0.959999979       2.60829069E-09
   1.08000004       2.91488433E-09
   1.20000005       3.22494675E-09
   1.32000005       3.53807517E-09
   1.44000006       3.85494614E-09
   1.55999994       4.17733936E-09
   1.67999995       4.50806592E-09
   1.79999995       4.85083218E-09
   1.91999996       5.21005372E-09
   2.03999996       5.59065638E-09
   2.16000009       5.99787997E-09
   2.27999997       6.43709264E-09
   2.40000010       6.91361812E-09
   2.51999998       7.43258033E-09
   2.64000010       7.99875988E-09
   2.75999999       8.61648353E-09
   2.88000011       9.28955934E-09
   3.00000000       1.00212656E-08
   3.11999989       1.08144151E-08
   3.24000001       1.16714771E-08
   3.35999990       1.25947563E-08
   3.48000002       1.35865941E-08
   3.59999990       1.46495571E-08
   3.72000003       1.57865951E-08
   3.83999991       1.70011685E-08
   3.96000004       1.82972908E-08
   4.07999992       1.96795700E-08
   4.19999981       2.11531859E-08
   4.32000017       2.27238832E-08
   4.44000006       2.43979290E-08
   4.55999994       2.61820876E-08
   4.67999983       2.80835994E-08
   4.80000019       3.01101615E-08
   4.92000008       3.22699414E-08
   5.03999996       3.45716451E-08
   5.15999985       3.70245914E-08
   5.28000021       3.96389446E-08
   5.40000010       4.24259383E-08
   5.51999998       4.53981528E-08
   5.63999987       4.85697669E-08
   5.76000023       5.19567145E-08
   5.88000011       5.55767201E-08
   6.00000000       5.94490999E-08
   6.11999989       6.35944133E-08
   6.23999977       6.80339127E-08
   6.36000013       7.27890423E-08
   6.48000002       7.78808413E-08
   6.59999990       8.33295388E-08
   6.71999979       8.91543692E-08
   6.84000015       9.53735153E-08
   6.96000004       1.02004329E-07
   7.07999992       1.09063585E-07
   7.19999981       1.16567890E-07
   7.32000017       1.24534097E-07
   7.44000006       1.32979778E-07
   7.55999994       1.41923621E-07
   7.67999983       1.51385905E-07
   7.80000019       1.61389053E-07
   7.92000008       1.71957936E-07
   8.03999996       1.83120363E-07
   8.15999985       1.94907216E-07
   8.27999973       2.07352443E-07
   8.39999962       2.20492794E-07
   8.52000046       2.34367434E-07
   8.64000034       2.49017376E-07
   8.76000023       2.64485124E-07
   8.88000011       2.80814277E-07
   9.00000000       2.98049571E-07
   9.11999989       3.16236935E-07
   9.23999977       3.35423664E-07
   9.35999966       3.55658841E-07
   9.47999954       3.76993142E-07
   9.60000038       3.99478864E-07
   9.72000027       4.23169467E-07
   9.84000015       4.48119437E-07
   9.96000004       4.74384024E-07
   10.0799999       5.02019191E-07
   10.1999998       5.31082037E-07
   10.3199997       5.61631509E-07
   10.4399996       5.93728828E-07
   10.5600004       6.27438681E-07
   10.6800003       6.62828938E-07
   10.8000002       6.99971167E-07
   10.9200001       7.38940230E-07
   11.0400000       7.79813320E-07
   11.1599998       8.22669335E-07
   11.2799997       8.67588426E-07
   11.3999996       9.14651196E-07
   11.5200005       9.63939328E-07
   11.6400003       1.01553542E-06
   11.7600002       1.06952405E-06
   11.8800001       1.12599207E-06
   12.0000000       1.18502942E-06
   12.1199999       1.24672931E-06
   12.2399998       1.31118861E-06
   12.3599997       1.37850770E-06
   12.4799995       1.44878925E-06
   12.6000004       1.52213852E-06
   12.7200003       1.59866192E-06
   12.8400002       1.67846679E-06
   12.9600000       1.76166122E-06
   13.0799999       1.84835369E-06
   13.1999998       1.93865321E-06
   13.3199997       2.03266950E-06
   13.4399996       2.13051362E-06
   13.5600004       2.23229836E-06
   13.6800003       2.33813762E-06
   13.8000002       2.44814714E-06
   13.9200001       2.56244448E-06
   14.0400000       2.68114809E-06
   14.1599998       2.80437757E-06
   14.2799997       2.93225185E-06
   14.3999996       3.06489142E-06
   14.5200005       3.20241566E-06
   14.6400003       3.34494666E-06
   14.7600002       3.49260631E-06
   14.8800001       3.64551897E-06
   15.0000000       3.80380902E-06
   15.1199999       3.96760333E-06
   15.2399998       4.13702946E-06
   15.3599997       4.31221315E-06
   15.4799995       4.49328036E-06
   15.6000004       4.68035478E-06
   15.7200003       4.87355828E-06
   15.8400002       5.07300956E-06
   15.9600000       5.27882457E-06
   16.0799999       5.49111519E-06
   16.2000008       5.70999055E-06
   16.3199997       5.93555251E-06
   16.4400005       6.16790385E-06
   16.5599995       6.40714006E-06
   16.6800003       6.65335710E-06
   16.7999992       6.90664820E-06
   16.9200001       7.16710611E-06
   17.0400009       7.43482042E-06
   17.1599998       7.70987845E-06
   17.2800007       7.99236204E-06
   17.3999996       8.28234806E-06
   17.5200005       8.57990290E-06
   17.6399994       8.88508657E-06
   17.7600002       9.19795275E-06
   17.8799992       9.51854690E-06
   18.0000000       9.84691542E-06
   18.1200008       1.01830938E-05
   18.2399998       1.05271201E-05
   18.3600006       1.08790218E-05
   18.4799995       1.12388207E-05
   18.6000004       1.16065266E-05
   18.7199993       1.19821389E-05
   18.8400002       1.23656455E-05
   18.9599991       1.27570265E-05
   19.0799999       1.31562529E-05
   19.2000008       1.35632899E-05
   19.3199997       1.39780996E-05
   19.4400005       1.44006381E-05
   19.5599995       1.48308482E-05
   19.6800003       1.52686644E-05
   19.7999992       1.57140021E-05
   19.9200001       1.61667631E-05
   20.0400009       1.66268292E-05
   20.1599998       1.70940730E-05
   20.2800007       1.75683563E-05
   20.3999996       1.80495317E-05
   20.5200005       1.85374411E-05
   20.6399994       1.90319188E-05
   20.7600002       1.95327957E-05
   20.8799992       2.00398827E-05
   21.0000000       2.05529795E-05
   21.1200008       2.10718736E-05
   21.2399998       2.15963373E-05
   21.3600006       2.21261289E-05
   21.4799995       2.26609973E-05
   21.6000004       2.32006805E-05
   21.7199993       2.37449112E-05
   21.8400002       2.42934166E-05
   21.9599991       2.48459091E-05
   22.0799999       2.54020888E-05
   22.2000008       2.59616390E-05
   22.3199997       2.65242234E-05
   22.4400005       2.70894961E-05
   22.5599995       2.76570918E-05
   22.6800003       2.82266355E-05
   22.7999992       2.87977473E-05
   22.9200001       2.93700323E-05
   23.0400009       2.99431013E-05
   23.1599998       3.05165486E-05
   23.2800007       3.10899668E-05
   23.3999996       3.16629412E-05
   23.5200005       3.22350352E-05
   23.6399994       3.28058122E-05
   23.7600002       3.33748139E-05
   23.8799992       3.39415783E-05
   24.0000000       3.45056142E-05
   24.1200008       3.50664377E-05
   24.2399998       3.56235541E-05
   24.3600006       3.61764578E-05
   24.4799995       3.67246394E-05
   24.6000004       3.72675822E-05
   24.7199993       3.78047771E-05
   24.8400002       3.83357037E-05
   24.9599991       3.88598237E-05
   25.0799999       3.93766168E-05
   25.2000008       3.98855518E-05
   25.3199997       4.03860940E-05
   25.4400005       4.08777159E-05
   25.5599995       4.13598791E-05
   25.6800003       4.18320487E-05
   25.7999992       4.22936901E-05
   25.9200001       4.27442537E-05
   26.0400009       4.31831868E-05
   26.1599998       4.36099290E-05
   26.2800007       4.40239201E-05
   26.3999996       4.44245961E-05
   26.5200005       4.48113897E-05
   26.6399994       4.51837586E-05
   26.7600002       4.55411609E-05
   26.8799992       4.58830691E-05
   27.0000000       4.62089629E-05
   27.1200008       4.65183293E-05
   27.2399998       4.68106482E-05
   27.3600006       4.70854029E-05
   27.4799995       4.73420769E-05
   27.6000004       4.75801280E-05
   27.7199993       4.77990434E-05
   27.8400002       4.79983100E-05
   27.9599991       4.81774259E-05
   28.0799999       4.83359290E-05
   28.2000008       4.84733646E-05
   28.3199997       4.85892961E-05
   28.4400005       4.86833087E-05
   28.5599995       4.87549842E-05
   28.6800003       4.88039150E-05
   28.7999992       4.88297010E-05
   28.9200001       4.88319456E-05
   29.0400009       4.88102742E-05
   29.1599998       4.87643156E-05
   29.2800007       4.86937097E-05
   29.3999996       4.85981182E-05
   29.5200005       4.84771954E-05
   29.6399994       4.83306212E-05
   29.7600002       4.81580755E-05
   29.8799992       4.79592600E-05
   30.0000000       4.77338763E-05
   30.1200008       4.74816625E-05
   30.2399998       4.72023603E-05
   30.3600006       4.68957332E-05
   30.4799995       4.65615558E-05
   30.6000004       4.61996024E-05
   30.7199993       4.58096547E-05
   30.8400002       4.53915127E-05
   30.9599991       4.49449763E-05
   31.0799999       4.44698635E-05
   31.2000008       4.39660107E-05
   31.3199997       4.34332796E-05
   31.4400005       4.28715393E-05
   31.5599995       4.22806806E-05
   31.6800003       4.16605981E-05
   31.7999992       4.10111825E-05
   31.9200001       4.03323320E-05
   32.0400009       3.96239557E-05
   32.1599998       3.88859480E-05
   32.2799988       3.81182290E-05
   32.4000015       3.73207513E-05
   32.5200005       3.64934785E-05
   32.6399994       3.56364108E-05
   32.7599983       3.47495661E-05
   32.8800011       3.38329846E-05
   33.0000000       3.28867136E-05
   33.1199989       3.19107930E-05
   33.2400017       3.09052666E-05
   33.3600006       2.98701652E-05
   33.4799995       2.88055089E-05
   33.5999985       2.77113159E-05
   33.7200012       2.65875969E-05
   33.8400002       2.54343759E-05
   33.9599991       2.42516817E-05
   34.0800018       2.30395653E-05
   34.2000008       2.17980923E-05
   34.3199997       2.05273464E-05
   34.4399986       1.92274238E-05
   34.5600014       1.78984283E-05
   34.6800003       1.65404635E-05
   34.7999992       1.51536133E-05
   34.9199982       1.37379420E-05
   35.0400009       1.22934916E-05
   35.1599998       1.08202867E-05
   35.2799988       9.31833802E-06
   35.4000015       7.78765661E-06
   35.5200005       6.22825837E-06
   35.6399994       4.64017103E-06
   35.7599983       3.02343369E-06
   35.8800011       1.37809207E-06
   36.0000000      -2.95809230E-07
   36.1199989      -1.99823194E-06
   36.2400017      -3.72914997E-06
   36.3600006      -5.48855405E-06
   36.4799995      -7.27645829E-06
   36.5999985      -9.09289247E-06
   36.7200012      -1.09379098E-05
   36.8400002      -1.28115771E-05
   36.9599991      -1.47139781E-05
   37.0800018      -1.66452155E-05
   37.2000008      -1.86053967E-05
   37.3199997      -2.05946471E-05
   37.4399986      -2.26131087E-05
   37.5600014      -2.46609288E-05
   37.6800003      -2.67382693E-05
   37.7999992      -2.88453066E-05
   37.9199982      -3.09822353E-05
   38.0400009      -3.31492665E-05
   38.1599998      -3.53466312E-05
   38.2799988      -3.75745913E-05
   38.4000015      -3.98334414E-05
   38.5200005      -4.21234872E-05
   38.6399994      -4.44450670E-05
   38.7599983      -4.67985446E-05
   38.8800011      -4.91842766E-05
   39.0000000      -5.16026303E-05
   39.1199989      -5.40539841E-05
   39.2400017      -5.65387272E-05
   39.3600006      -5.90572636E-05
   39.4799995      -6.16100297E-05
   39.5999985      -6.41974839E-05
   39.7200012      -6.68200955E-05
   39.8400002      -6.94783594E-05
   39.9599991      -7.21728138E-05
   40.0800018      -7.49039755E-05
   40.2000008      -7.76724119E-05
   40.3199997      -8.04787123E-05
   40.4399986      -8.33234590E-05
   40.5600014      -8.62072557E-05
   40.6800003      -8.91307282E-05
   40.7999992      -9.20944731E-05
   40.9199982      -9.50991234E-05
   41.0400009      -9.81453122E-05
   41.1599998      -1.01233680E-04
   41.2799988      -1.04364874E-04
   41.4000015      -1.07539556E-04
   41.5200005      -1.10758403E-04
   41.6399994      -1.14022114E-04
   41.7599983      -1.17331343E-04
   41.8800011      -1.20686746E-04
   42.0000000      -1.24088954E-04
   42.1199989      -1.27538617E-04
   42.2400017      -1.31036373E-04
   42.3600006      -1.34582850E-04
   42.4799995      -1.38178715E-04
   42.5999985      -1.41824625E-04
   42.7200012      -1.45521233E-04
   42.8400002      -1.49269166E-04
   42.9599991      -1.53069050E-04
   43.0800018      -1.56921378E-04
   43.2000008      -1.60826719E-04
   43.3199997      -1.64785510E-04
   43.4399986      -1.68798157E-04
   43.5600014      -1.72865053E-04
   43.6800003      -1.76986548E-04
   43.7999992      -1.81162948E-04
   43.9199982      -1.85394616E-04
   44.0400009      -1.89681843E-04
   44.1599998      -1.94024877E-04
   44.2799988      -1.98423935E-04
   44.4000015      -2.02879179E-04
   44.5200005      -2.07390665E-04
   44.6399994      -2.11958410E-04
   44.7599983      -2.16582368E-04
   44.8800011      -2.21262366E-04
   45.0000000      -2.25998228E-04
   45.1199989      -2.30789694E-04
   45.2400017      -2.35636398E-04
   45.3600006      -2.40537935E-04
   45.4799995      -2.45493778E-04
   45.5999985      -2.50503363E-04
   45.7200012      -2.55566032E-04
   45.8400002      -2.60681001E-04
   45.9599991      -2.65847455E-04
   46.0800018      -2.71064491E-04
   46.2000008      -2.76331091E-04
   46.3199997      -2.81646149E-04
   46.4399986      -2.87008530E-04
   46.5600014      -2.92416924E-04
   46.6800003      -2.97869905E-04
   46.7999992      -3.03365989E-04
   46.9199982      -3.08903516E-04
   47.0400009      -3.14480712E-04
   47.1599998      -3.20095685E-04
   47.2799988      -3.25746485E-04
   47.4000015      -3.31430987E-04
   47.5200005      -3.37146921E-04
   47.6399994      -3.42892017E-04
   47.7599983      -3.48663860E-04
   47.8800011      -3.54459975E-04
   48.0000000      -3.60277627E-04
   48.1199989      -3.66114138E-04
   48.2400017      -3.71966453E-04
   48.3600006      -3.77831660E-04
   48.4799995      -3.83706472E-04
   48.5999985      -3.89587658E-04
   48.7200012      -3.95471783E-04
   48.8400002      -4.01355384E-04
   48.9599991      -4.07234824E-04
   49.0800018      -4.13106347E-04
   49.2000008      -4.18966083E-04
   49.3199997      -4.24810132E-04
   49.4399986      -4.30634449E-04
   49.5600014      -4.36434784E-04
   49.6800003      -4.42206918E-04
   49.7999992      -4.47946368E-04
   49.9199982      -4.53648681E-04
   50.0400009      -4.59309260E-04
   50.1599998      -4.64923476E-04
   50.2799988      -4.70486557E-04
   50.4000015      -4.75993671E-04
   50.5200005      -4.81439929E-04
   50.6399994      -4.86820296E-04
   50.7599983      -4.92129708E-04
   50.8800011      -4.97363100E-04
   51.0000000      -5.02515293E-04
   51.1199989      -5.07581048E-04
   51.2400017      -5.12555009E-04
   51.3600006      -5.17431938E-04
   51.4799995      -5.22206479E-04
   51.5999985      -5.26873046E-04
   51.7200012      -5.31426340E-04
   51.8400002      -5.35860774E-04
   51.9599991      -5.40170935E-04
   52.0800018      -5.44351351E-04
   52.2000008      -5.48396551E-04
   52.3199997      -5.52301004E-04
   52.4399986      -5.56059473E-04
   52.5600014      -5.59666427E-04
   52.6800003      -5.63116453E-04
   52.7999992      -5.66404255E-04
   52.9199982      -5.69524651E-04
   53.0400009      -5.72472403E-04
   53.1599998      -5.75242506E-04
   53.2799988      -5.77829836E-04
   53.4000015      -5.80229389E-04
   53.5200005      -5.82436216E-04
   53.6399994      -5.84445486E-04
   53.7599983      -5.86252543E-04
   53.8800011      -5.87852730E-04
   54.0000000      -5.89241623E-04
   54.1199989      -5.90414973E-04
   54.2400017      -5.91368531E-04
   54.3600006      -5.92098397E-04
   54.4799995      -5.92600729E-04
   54.5999985      -5.92871918E-04
   54.7200012      -5.92908415E-04
   54.8400002      -5.92706900E-04
   54.9599991      -5.92264463E-04
   55.0800018      -5.91578020E-04
   55.2000008      -5.90644835E-04
   55.3199997      -5.89462637E-04
   55.4399986      -5.88028925E-04
   55.5600014      -5.86341775E-04
   55.6800003      -5.84399386E-04
   55.7999992      -5.82200009E-04
   55.9199982      -5.79742366E-04
   56.0400009      -5.77025465E-04
   56.1599998      -5.74048725E-04
   56.2799988      -5.70811681E-04
   56.4000015      -5.67314215E-04
   56.5200005      -5.63556561E-04
   56.6399994      -5.59539010E-04
   56.7599983      -5.55262261E-04
   56.8800011      -5.50727244E-04
   57.0000000      -5.45935065E-04
   57.1199989      -5.40887413E-04
   57.2400017      -5.35586034E-04
   57.3600006      -5.30033140E-04
   57.4799995      -5.24231174E-04
   57.5999985      -5.18183107E-04
   57.7200012      -5.11891791E-04
   57.8400002      -5.05360716E-04
   57.9599991      -4.98593494E-04
   58.0800018      -4.91594081E-04
   58.2000008      -4.84366727E-04
   58.3199997      -4.76916059E-04
   58.4399986      -4.69246879E-04
   58.5600014      -4.61364340E-04
   58.6800003      -4.53273853E-04
   58.7999992      -4.44981182E-04
   58.9199982      -4.36492293E-04
   59.0400009      -4.27813502E-04
   59.1599998      -4.18951444E-04
   59.2799988      -4.09913016E-04
   59.4000015      -4.00705379E-04
   59.5200005      -3.91335925E-04
   59.6399994      -3.81812308E-04
   59.7599983      -3.72142356E-04
   59.8800011      -3.62334104E-04
   60.0000000      -3.52395786E-04
   60.1199989      -3.42335843E-04
   60.2400017      -3.32162890E-04
   60.3600006      -3.21885716E-04
   60.4799995      -3.11513344E-04
   60.5999985      -3.01054941E-04
   60.7200012      -2.90519849E-04
   60.8400002      -2.79917615E-04
   60.9599991      -2.69257784E-04
   61.0800018      -2.58550048E-04
   61.2000008      -2.47804157E-04
   61.3199997      -2.37029992E-04
   61.4399986      -2.26237447E-04
   61.5600014      -2.15436521E-04
   61.6800003      -2.04637283E-04
   61.7999992      -1.93849759E-04
   61.9199982      -1.83084048E-04
   62.0400009      -1.72350148E-04
   62.1599998      -1.61658027E-04
   62.2799988      -1.51017593E-04
   62.4000015      -1.40438700E-04
   62.5200005      -1.29931170E-04
   62.6399994      -1.19504730E-04
   62.7599983      -1.09169116E-04
   62.8800011      -9.89339460E-05
   63.0000000      -8.88087452E-05
   63.1199989      -7.88028483E-05
   63.2400017      -6.89254084E-05
   63.3600006      -5.91853386E-05
   63.4799995      -4.95913227E-05
   63.5999985      -4.01518228E-05
   63.7200012      -3.08751114E-05
   63.8400002      -2.17692941E-05
   63.9599991      -1.28422680E-05
   64.0800018      -4.10171560E-06
   64.1999969       4.44496527E-06
   64.3199997       1.27906933E-05
   64.4400024       2.09287136E-05
   64.5599976       2.88526098E-05
   64.6800003       3.65562773E-05
   64.8000031       4.40339027E-05
   64.9199982       5.12799488E-05
   65.0400009       5.82891844E-05
   65.1600037       6.50567017E-05
   65.2799988       7.15779461E-05
   65.4000015       7.78487738E-05
   65.5199966       8.38654742E-05
   65.6399994       8.96247293E-05
   65.7600021       9.51236216E-05
   65.8799973       1.00359583E-04
   66.0000000       1.05330415E-04
   66.1200027       1.10034256E-04
   66.2399979       1.14469600E-04
   66.3600006       1.18635347E-04
   66.4800034       1.22530808E-04
   66.5999985       1.26155719E-04
   66.7200012       1.29510241E-04
   66.8399963       1.32594912E-04
   66.9599991       1.35410606E-04
   67.0800018       1.37958545E-04
   67.1999969       1.40240343E-04
   67.3199997       1.42257923E-04
   67.4400024       1.44013626E-04
   67.5599976       1.45510188E-04
   67.6800003       1.46750768E-04
   67.8000031       1.47738872E-04
   67.9199982       1.48478342E-04
   68.0400009       1.48973311E-04
   68.1600037       1.49228174E-04
   68.2799988       1.49247600E-04
   68.4000015       1.49036525E-04
   68.5199966       1.48600171E-04
   68.6399994       1.47944069E-04
   68.7600021       1.47074068E-04
   68.8799973       1.45996280E-04
   69.0000000       1.44717109E-04
   69.1200027       1.43243160E-04
   69.2399979       1.41581200E-04
   69.3600006       1.39738171E-04
   69.4800034       1.37721232E-04
   69.5999985       1.35537659E-04
   69.7200012       1.33194888E-04
   69.8399963       1.30700559E-04
   69.9599991       1.28062413E-04
   70.0800018       1.25288367E-04
   70.1999969       1.22386366E-04
   70.3199997       1.19364428E-04
   70.4400024       1.16230593E-04
   70.5599976       1.12992937E-04
   70.6800003       1.09659581E-04
   70.8000031       1.06238673E-04
   70.9199982       1.02738413E-04
   71.0400009       9.91669949E-05
   71.1600037       9.55326032E-05
   71.2799988       9.18433143E-05
   71.4000015       8.81071537E-05
   71.5199966       8.43320377E-05
   71.6399994       8.05257732E-05
   71.7600021       7.66961020E-05
   71.8799973       7.28506639E-05
   72.0000000       6.89970257E-05
   72.1200027       6.51426235E-05
   72.2399979       6.12947260E-05
   72.3600006       5.74604528E-05
   72.4800034       5.36467051E-05
   72.5999985       4.98601839E-05
   72.7200012       4.61074160E-05