  -30.0000000       0.00000000    
  -29.8799992       0.00000000    
  -29.7600002       0.00000000    
  -29.6399994       0.00000000    
  -29.5200005       0.00000000    
  -29.3999996       0.00000000    
  -29.2800007       0.00000000    
  -29.1599998       0.00000000    
  -29.0400009       0.00000000    
  -28.9200001       0.00000000    
  -28.7999992      -1.40129846E-44
  -28.6800003       7.84727140E-44
  -28.5599995       6.20452921E-41
  -28.4400005       1.34526895E-39
  -28.3199997       1.37572659E-38
  -28.2000008       8.92312558E-38
  -28.0799999       4.17987736E-37
  -27.9599991       1.53653682E-36
  -27.8400002       4.76670564E-36
  -27.7199993       1.33762432E-35
  -27.6000004       3.52948234E-35
  -27.4799995       8.44459644E-35
  -27.3600006       1.57947755E-34
  -27.2399998       1.19451153E-34
  -27.1200008      -6.18058537E-34
  -27.0000000      -3.57096119E-33
  -26.8799992      -1.11390322E-32
  -26.7600002      -2.40834577E-32
  -26.6399994      -3.37179064E-32
  -26.5200005      -8.75483140E-33
  -26.3999996       1.12289568E-31
  -26.2800007       3.92650425E-31
  -26.1599998       7.88941685E-31
  -26.0400009       9.50559933E-31
  -25.9200001       4.10390733E-32
  -25.7999992      -3.08035342E-30
  -25.6800003      -8.80188879E-30
  -25.5599995      -1.45482897E-29
  -25.4400005      -1.22516168E-29
  -25.3199997       1.15688001E-29
  -25.2000008       6.81989789E-29
  -25.0799999       1.47618787E-28
  -24.9599991       1.91644510E-28
  -24.8400002       7.92914266E-29
  -24.7199993      -3.37008924E-28
  -24.6000004      -1.10285595E-27
  -24.4799995      -1.93999328E-27
  -24.3600006      -2.03279787E-27
  -24.2399998      -6.72747552E-29
  -24.1200008       5.14690179E-27
  -24.0000000       1.32755599E-26
  -23.8799992       2.05960674E-26
  -23.7600002       1.88542533E-26
  -23.6399994      -3.13351460E-27
  -23.5200005      -5.31100728E-26
  -23.3999996      -1.24042054E-25
  -23.2800007      -1.81738108E-25
  -23.1599998      -1.60738791E-25
  -23.0400009       1.86689757E-26
  -22.9200001       4.02632313E-25
  -22.7999992       9.29616666E-25
  -22.6800003       1.35957653E-24
  -22.5599995       1.26337080E-24
  -22.4400005       1.40784789E-25
  -22.3199997      -2.29211701E-24
  -22.2000008      -5.68774392E-24
  -22.0799999      -8.69241098E-24
  -21.9599991      -8.90459484E-24
  -21.8400002      -3.49176263E-24
  -21.7199993       9.36120568E-24
  -21.6000004       2.83896967E-23
  -21.4799995       4.73583809E-23
  -21.3600006       5.46528073E-23
  -21.2399998       3.57938946E-23
  -21.1200008      -2.03245326E-23
  -21.0000000      -1.12262922E-22
  -20.8799992      -2.16997460E-22
  -20.7600002      -2.86235617E-22
  -20.6399994      -2.54025404E-22
  -20.5200005      -5.95398637E-23
  -20.3999996       3.16606611E-22
  -20.2800007       8.12417882E-22
  -20.1599998       1.25926525E-21
  -20.0400009       1.39399906E-21
  -19.9200001       9.26807510E-22
  -19.7999992      -3.32729362E-22
  -19.6800003      -2.31568647E-21
  -19.5599995      -4.55551184E-21
  -19.4400005      -6.15098047E-21
  -19.3199997      -5.91157671E-21
  -19.2000008      -2.73194956E-21
  -19.0799999       3.83474995E-21
  -18.9599991       1.29452659E-20
  -18.8400002       2.20324532E-20
  -18.7199993       2.68965919E-20
  -18.6000004       2.26144652E-20
  -18.4799995       5.36405584E-21
  -18.3600006      -2.51070690E-20
  -18.2399998      -6.31261334E-20
  -18.1200008      -9.60457504E-20
  -18.0000000      -1.05832215E-19
  -17.8799992      -7.41877935E-20
  -17.7600002       9.06534537E-21
  -17.6399994       1.36396034E-19
  -17.5200005       2.75695343E-19
  -17.3999996       3.71089249E-19
  -17.2800007       3.55532619E-19
  -17.1599998       1.75821207E-19
  -17.0400009      -1.75146667E-19
  -16.9200001      -6.30508858E-19
  -16.7999992      -1.04180772E-18
  -16.6800003      -1.20586224E-18
  -16.5599995      -9.30866255E-19
  -16.4400005      -1.29621360E-19
  -16.3199997       1.09136204E-18
  -16.2000008       2.39112190E-18
  -16.0799999       3.24332555E-18
  -15.9600000       3.09223191E-18
  -15.8400002       1.58898501E-18
  -15.7200003      -1.16791027E-18
  -15.6000004      -4.49766761E-18
  -15.4799995      -7.21210422E-18
  -15.3599997      -7.94700869E-18
  -15.2399998      -5.69474354E-18
  -15.1199999      -3.69043011E-19
  -15.0000000       6.84227797E-18
  -14.8800001       1.35680211E-17
  -14.7600002       1.68936420E-17
  -14.6400003       1.44406296E-17
  -14.5200005       5.54109060E-18
  -14.3999996      -7.98446261E-18
  -14.2799997      -2.19045665E-17
  -14.1599998      -3.07148275E-17
  -14.0400000      -2.96236472E-17
  -13.9200001      -1.67372585E-17
  -13.8000002       5.46101663E-18
  -13.6800003       3.01548163E-17
  -13.5600004       4.81001324E-17
  -13.4399996       5.09807790E-17
  -13.3199997       3.50620686E-17
  -13.1999998       3.60117919E-18
  -13.0799999      -3.33050344E-17
  -12.9600000      -6.18796545E-17
  -12.8400002      -7.00066908E-17
  -12.7200003      -5.27571990E-17
  -12.6000004      -1.56018655E-17
  -12.4799995       2.66366087E-17
  -12.3599997       5.54478454E-17
  -12.2399998       5.71490019E-17
  -12.1199999       3.07065027E-17
  -12.0000000      -9.18877306E-18
  -11.8800001      -3.65289973E-17
  -11.7600002      -2.56375747E-17
  -11.6400003       3.38364020E-17
  -11.5200005       1.25242053E-16
  -11.3999996       2.03568897E-16
  -11.2799997       2.08486016E-16
  -11.1599998       9.01440984E-17
  -11.0400000      -1.60510785E-16
  -10.9200001      -4.89882511E-16
  -10.8000002      -7.81432363E-16
  -10.6800003      -8.84268039E-16
  -10.5600004      -6.67215635E-16
  -10.4399996      -8.27514595E-17
  -10.3199997       7.83596109E-16
  -10.1999998       1.70339681E-15
  -10.0799999       2.35025194E-15
  -9.96000004       2.39619776E-15
  -9.84000015       1.63471197E-15
  -9.72000027       8.91426540E-17
  -9.60000038      -1.93794976E-15
  -9.47999954      -3.90550925E-15
  -9.35999966      -5.16767983E-15
  -9.23999977      -5.16938956E-15
  -9.11999989      -3.64515462E-15
  -9.00000000      -7.52790897E-16
  -8.88000011       2.91202706E-15
  -8.76000023       6.43898861E-15
  -8.64000034       8.83739967E-15
  -8.52000046       9.31537528E-15
  -8.39999962       7.51937236E-15
  -8.27999973       3.65933226E-15
  -8.15999985      -1.51990184E-15
  -8.03999996      -6.91190235E-15
  -7.92000008      -1.13139046E-14
  -7.80000019      -1.37070920E-14
  -7.67999983      -1.34778722E-14
  -7.55999994      -1.05323143E-14
  -7.44000006      -5.29305891E-15
  -7.32000017       1.39891959E-15
  -7.19999981       8.43816933E-15
  -7.07999992       1.46263566E-14
  -6.96000004       1.88383261E-14
  -6.84000015       2.01757014E-14
  -6.71999979       1.81083735E-14
  -6.59999990       1.25985080E-14
  -6.48000002       4.18627145E-15
  -6.36000013      -5.99758873E-15
  -6.23999977      -1.63289182E-14
  -6.11999989      -2.49162432E-14
  -6.00000000      -2.99401312E-14
  -5.88000011      -3.00486768E-14
  -5.76000023      -2.47186728E-14
  -5.63999987      -1.44811887E-14
  -5.51999998      -9.29125475E-16
  -5.40000010       1.35286518E-14
  -5.28000021       2.61383051E-14
  -5.15999985       3.44046521E-14
  -5.03999996       3.66882902E-14
  -4.92000008       3.26421798E-14
  -4.80000019       2.33570741E-14
  -4.67999983       1.11457720E-14
  -4.55999994      -1.01767938E-15
  -4.44000006      -1.02940388E-14
  -4.32000017      -1.48215858E-14
  -4.19999981      -1.43751012E-14
  -4.07999992      -1.06223818E-14
  -3.96000004      -6.83100393E-15
  -3.83999991      -7.00235573E-15
  -3.72000003      -1.45665340E-14
  -3.59999990      -3.09274836E-14
  -3.48000002      -5.42623739E-14
  -3.35999990      -7.90113553E-14
  -3.24000001      -9.64108757E-14
  -3.11999989      -9.62137271E-14
  -3.00000000      -6.94228678E-14
  -2.88000011      -1.15055518E-14
  -2.75999999       7.47513420E-14
  -2.64000010       1.77714275E-13
  -2.51999998       2.77530928E-13
  -2.40000010       3.49281747E-13
  -2.27999997       3.68324566E-13
  -2.16000009       3.16730610E-13
  -2.03999996       1.89136657E-13
  -1.91999996      -3.79436837E-15
  -1.79999995      -2.35650990E-13
  -1.67999995      -4.68635384E-13
  -1.55999994      -6.61094551E-13
  -1.44000006      -7.76210964E-13
  -1.32000005      -7.89364776E-13
  -1.20000005      -6.92074056E-13
  -1.08000004      -4.91626813E-13
 -0.959999979      -2.07127542E-13
 -0.839999974       1.35957163E-13
 -0.720000029       5.10165857E-13
 -0.600000024       8.87404462E-13
 -0.479999989       1.23704150E-12
 -0.360000014       1.52244938E-12
 -0.239999995       1.69906732E-12
 -0.119999997       1.71704187E-12
  -1.11022302E-15   1.52985372E-12
  0.119999997       1.10756293E-12
  0.239999995       4.50532027E-13
  0.360000014      -4.01938655E-13
  0.479999989      -1.37274719E-12
  0.600000024      -2.35933278E-12
  0.720000029      -3.25407713E-12
  0.839999974      -3.96553970E-12
  0.959999979      -4.43169026E-12
   1.08000004      -4.61839378E-12
   1.20000005      -4.50199600E-12
   1.32000005      -4.04220234E-12
   1.44000006      -3.15771324E-12
   1.55999994      -1.71944045E-12
   1.67999995       4.27191350E-13
   1.79999995       3.40794970E-12
   1.91999996       7.24213745E-12
   2.03999996       1.17607105E-11
   2.16000009       1.65449165E-11
   2.27999997       2.09085162E-11
   2.40000010       2.39376262E-11
   2.51999998       2.45888067E-11
   2.64000010       2.18323033E-11
   2.75999999       1.48182022E-11
   2.88000011       3.04089588E-12
   3.00000000      -1.35178630E-11
   3.11999989      -3.42782538E-11
   3.24000001      -5.79863796E-11
   3.35999990      -8.26713697E-11
   3.48000002      -1.05636187E-10
   3.59999990      -1.23490052E-10
   3.72000003      -1.32238456E-10
   3.83999991      -1.27449745E-10
   3.96000004      -1.04511420E-10
   4.07999992      -5.89728405E-11
   4.19999981       1.30527620E-11
   4.32000017       1.14478191E-10
   4.44000006       2.46892284E-10
   4.55999994       4.10339818E-10
   4.67999983       6.03286476E-10
   4.80000019       8.22791724E-10
   4.92000008       1.06487452E-09
   5.03999996       1.32501865E-09
   5.15999985       1.59873770E-09
   5.28000021       1.88211158E-09
   5.40000010       2.17221841E-09
   5.51999998       2.46741161E-09
   5.63999987       2.76742407E-09
   5.76000023       3.07332004E-09
   5.88000011       3.38733130E-09
   6.00000000       3.71262798E-09
   6.11999989       4.05306766E-09
   6.23999977       4.41295267E-09
   6.36000013       4.79679896E-09
   6.48000002       5.20912735E-09
   6.59999990       5.65425573E-09
   6.71999979       6.13610451E-09
   6.84000015       6.65803057E-09
   6.96000004       7.22271176E-09
   7.07999992       7.83213494E-09
   7.19999981       8.48771364E-09
   7.32000017       9.19055676E-09
   7.44000006       9.94185800E-09
   7.55999994       1.07433644E-08
   7.67999983       1.15978196E-08
   7.80000019       1.25093100E-08
   7.92000008       1.34833975E-08
   8.03999996       1.45270249E-08
   8.15999985       1.56481903E-08
   8.27999973       1.68554486E-08
   8.39999962       1.81573601E-08
   8.52000046       1.95619840E-08
   8.64000034       2.10765361E-08
   8.76000023       2.27072494E-08
   8.88000011       2.44594585E-08
   9.00000000       2.63378634E-08
   9.11999989       2.83468840E-08
   9.23999977       3.04910550E-08
   9.35999966       3.27753966E-08
   9.47999954       3.52057121E-08
   9.60000038       3.77888760E-08
   9.72000027       4.05330667E-08
   9.84000015       4.34480683E-08
   9.96000004       4.65455265E-08
   10.0799999       4.98392296E-08
   10.1999998       5.33453068E-08
   10.3199997       5.70822642E-08
   10.4399996       6.10708781E-08
   10.5600004       6.53338148E-08
   10.6800003       6.98950871E-08
   10.8000002       7.47793365E-08
   10.9200001       8.00111266E-08
   11.0400000       8.56143103E-08
   11.1599998       9.16115965E-08
   11.2799997       9.80243442E-08
   11.3999996       1.04872740E-07
   11.5200005       1.12176153E-07
   11.6400003       1.19953768E-07
   11.7600002       1.28225281E-07
   11.8800001       1.37011625E-07
   12.0000000       1.46335580E-07
   12.1199999       1.56222271E-07
   12.2399998       1.66699493E-07
   12.3599997       1.77797759E-07
   12.4799995       1.89550448E-07
   12.6000004       2.01993714E-07
   12.7200003       2.15166409E-07
   12.8400002       2.29110086E-07
   12.9600000       2.43868811E-07
   13.0799999       2.59488900E-07
   13.1999998       2.76018625E-07
   13.3199997       2.93507497E-07
   13.4399996       3.12005625E-07
   13.5600004       3.31563143E-07
   13.6800003       3.52229591E-07
   13.8000002       3.74054196E-07
   13.9200001       3.97086069E-07
   14.0400000       4.21375489E-07
   14.1599998       4.46975150E-07
   14.2799997       4.73941867E-07
   14.3999996       5.02337627E-07
   14.5200005       5.32230501E-07
   14.6400003       5.63694357E-07
   14.7600002       5.96807752E-07
   14.8800001       6.31653108E-07
   15.0000000       6.68314101E-07
   15.1199999       7.06874800E-07
   15.2399998       7.47418596E-07
   15.3599997       7.90028537E-07
   15.4799995       8.34788182E-07
   15.6000004       8.81783137E-07
   15.7200003       9.31102875E-07
   15.8400002       9.82841925E-07
   15.9600000       1.03710056E-06
   16.0799999       1.09398445E-06
   16.2000008       1.15360297E-06
   16.3199997       1.21606786E-06
   16.4400005       1.28149179E-06
   16.5599995       1.34998686E-06
   16.6800003       1.42166471E-06
   16.7999992       1.49663799E-06
   16.9200001       1.57502188E-06
   17.0400009       1.65693586E-06
   17.1599998       1.74250465E-06
   17.2800007       1.83185966E-06
   17.3999996       1.92513744E-06
   17.5200005       2.02247793E-06
   17.6399994       2.12402279E-06
   17.7600002       2.22991366E-06
   17.8799992       2.34029085E-06
   18.0000000       2.45529350E-06
   18.1200008       2.57506053E-06
   18.2399998       2.69973407E-06
   18.3600006       2.82946007E-06
   18.4799995       2.96439043E-06
   18.6000004       3.10468295E-06
   18.7199993       3.25050109E-06
   18.8400002       3.40201245E-06
   18.9599991       3.55938550E-06
   19.0799999       3.72278828E-06
   19.2000008       3.89238630E-06
   19.3199997       4.06834215E-06
   19.4400005       4.25081544E-06
   19.5599995       4.43996396E-06
   19.6800003       4.63594415E-06
   19.7999992       4.83891199E-06
   19.9200001       5.04902346E-06
   20.0400009       5.26643498E-06
   20.1599998       5.49130391E-06
   20.2800007       5.72378895E-06
   20.3999996       5.96404971E-06
   20.5200005       6.21224763E-06
   20.6399994       6.46854505E-06
   20.7600002       6.73310524E-06
   20.8799992       7.00608916E-06
   21.0000000       7.28765417E-06
   21.1200008       7.57795306E-06
   21.2399998       7.87713088E-06
   21.3600006       8.18532681E-06
   21.4799995       8.50267224E-06
   21.6000004       8.82929908E-06
   21.7199993       9.16533099E-06
   21.8400002       9.51089623E-06
   21.9599991       9.86611485E-06
   22.0799999       1.02311069E-05
   22.2000008       1.06059815E-05
   22.3199997       1.09908424E-05
   22.4400005       1.13857768E-05
   22.5599995       1.17908594E-05
   22.6800003       1.22061520E-05
   22.7999992       1.26317063E-05
   22.9200001       1.30675708E-05
   23.0400009       1.35137861E-05
   23.1599998       1.39703952E-05
   23.2800007       1.44374371E-05
   23.3999996       1.49149464E-05
   23.5200005       1.54029512E-05
   23.6399994       1.59014653E-05
   23.7600002       1.64104858E-05
   23.8799992       1.69299947E-05
   24.0000000       1.74599481E-05
   24.1200008       1.80002899E-05
   24.2399998       1.85509416E-05
   24.3600006       1.91118161E-05
   24.4799995       1.96828150E-05
   24.6000004       2.02638312E-05
   24.7199993       2.08547463E-05
   24.8400002       2.14554348E-05
   24.9599991       2.20657566E-05
   25.0799999       2.26855645E-05
   25.2000008       2.33146930E-05
   25.3199997       2.39529600E-05
   25.4400005       2.46001673E-05
   25.5599995       2.52560985E-05
   25.6800003       2.59205208E-05
   25.7999992       2.65931740E-05
   25.9200001       2.72737834E-05
   26.0400009       2.79620563E-05
   26.1599998       2.86576778E-05
   26.2800007       2.93603152E-05
   26.3999996       3.00696192E-05
   26.5200005       3.07852206E-05
   26.6399994       3.15067336E-05
   26.7600002       3.22337801E-05
   26.8799992       3.29659488E-05
   27.0000000       3.37028287E-05
   27.1200008       3.44440014E-05
   27.2399998       3.51890230E-05
   27.3600006       3.59374353E-05
   27.4799995       3.66887580E-05
   27.6000004       3.74424999E-05
   27.7199993       3.81981336E-05
   27.8400002       3.89551242E-05
   27.9599991       3.97129261E-05
   28.0799999       4.04709644E-05
   28.2000008       4.12286681E-05
   28.3199997       4.19854478E-05
   28.4400005       4.27407103E-05
   28.5599995       4.34938484E-05
   28.6800003       4.42442397E-05
   28.7999992       4.49912368E-05
   28.9200001       4.57341812E-05
   29.0400009       4.64723853E-05
   29.1599998       4.72051652E-05
   29.2800007       4.79318151E-05
   29.3999996       4.86516255E-05
   29.5200005       4.93638945E-05
   29.6399994       5.00679198E-05
   29.7600002       5.07629920E-05
   29.8799992       5.14484054E-05
   30.0000000       5.21234469E-05
   30.1200008       5.27873963E-05
   30.2399998       5.34395185E-05
   30.3600006       5.40790825E-05
   30.4799995       5.47053351E-05
   30.6000004       5.53175196E-05
   30.7199993       5.59148830E-05
   30.8400002       5.64966649E-05
   30.9599991       5.70621123E-05
   31.0799999       5.76104831E-05
   31.2000008       5.81410168E-05
   31.3199997       5.86529786E-05
   31.4400005       5.91456374E-05
   31.5599995       5.96182726E-05
   31.6800003       6.00701642E-05
   31.7999992       6.05006062E-05
   31.9200001       6.09089038E-05
   32.0400009       6.12943622E-05
   32.1599998       6.16562902E-05
   32.2799988       6.19940183E-05
   32.4000015       6.23068554E-05
   32.5200005       6.25941320E-05
   32.6399994       6.28551861E-05
   32.7599983       6.30893774E-05
   32.8800011       6.32960582E-05
   33.0000000       6.34746393E-05
   33.1199989       6.36245240E-05
   33.2400017       6.37451594E-05
   33.3600006       6.38359852E-05
   33.4799995       6.38964848E-05
   33.5999985       6.39261198E-05
   33.7200012       6.39243881E-05
   33.8400002       6.38907950E-05
   33.9599991       6.38248748E-05
   34.0800018       6.37261837E-05
   34.2000008       6.35942997E-05
   34.3199997       6.34288299E-05
   34.4399986       6.32293959E-05
   34.5600014       6.29956630E-05
   34.6800003       6.27273039E-05
   34.7999992       6.24240129E-05
   34.9199982       6.20855426E-05
   35.0400009       6.17116384E-05
   35.1599998       6.13020820E-05
   35.2799988       6.08566734E-05
   35.4000015       6.03752451E-05
   35.5200005       5.98576298E-05
   35.6399994       5.93036821E-05
   35.7599983       5.87132781E-05
   35.8800011       5.80863089E-05
   36.0000000       5.74226942E-05
   36.1199989       5.67223760E-05
   36.2400017       5.59853288E-05
   36.3600006       5.52115598E-05
   36.4799995       5.44011273E-05
   36.5999985       5.35541185E-05
   36.7200012       5.26706499E-05
   36.8400002       5.17508888E-05
   36.9599991       5.07950208E-05
   37.0800018       4.98032568E-05
   37.2000008       4.87758334E-05
   37.3199997       4.77130125E-05
   37.4399986       4.66150741E-05
   37.5600014       4.54823130E-05
   37.6800003       4.43150639E-05
   37.7999992       4.31136759E-05
   37.9199982       4.18785276E-05
   38.0400009       4.06100153E-05
   38.1599998       3.93085684E-05
   38.2799988       3.79746452E-05
   38.4000015       3.66087152E-05
   38.5200005       3.52112656E-05
   38.6399994       3.37828169E-05
   38.7599983       3.23239001E-05
   38.8800011       3.08350645E-05
   39.0000000       2.93168887E-05
   39.1199989       2.77699783E-05
   39.2400017       2.61949608E-05
   39.3600006       2.45924803E-05
   39.4799995       2.29632024E-05
   39.5999985       2.13077965E-05
   39.7200012       1.96269339E-05
   39.8400002       1.79212875E-05
   39.9599991       1.61915177E-05
   40.0800018       1.44382902E-05
   40.2000008       1.26622854E-05
   40.3199997       1.08641952E-05
   40.4399986       9.04475019E-06
   40.5600014       7.20470825E-06
   40.6800003       5.34485980E-06
   40.7999992       3.46601951E-06
   40.9199982       1.56901319E-06
   41.0400009      -3.45336986E-07
   41.1599998      -2.27622036E-06
   41.2799988      -4.22284620E-06
   41.4000015      -6.18444437E-06
   41.5200005      -8.16026295E-06
   41.6399994      -1.01495598E-05
   41.7599983      -1.21515968E-05
   41.8800011      -1.41656392E-05
   42.0000000      -1.61909466E-05
   42.1199989      -1.82267722E-05
   42.2400017      -2.02723731E-05
   42.3600006      -2.23270035E-05
   42.4799995      -2.43899121E-05
   42.5999985      -2.64603568E-05
   42.7200012      -2.85375918E-05
   42.8400002      -3.06208858E-05
   42.9599991      -3.27095222E-05
   43.0800018      -3.48028116E-05
   43.2000008      -3.69001173E-05
   43.3199997      -3.90008354E-05
   43.4399986      -4.11044093E-05
   43.5600014      -4.32103334E-05
   43.6800003      -4.53181237E-05
   43.7999992      -4.74273329E-05
   43.9199982      -4.95375134E-05
   44.0400009      -5.16482251E-05
   44.1599998      -5.37590349E-05
   44.2799988      -5.58695210E-05
   44.4000015      -5.79792795E-05
   44.5200005      -6.00879539E-05
   44.6399994      -6.21952422E-05
   44.7599983      -6.43009043E-05
   44.8800011      -6.64047548E-05
   45.0000000      -6.85066916E-05
   45.1199989      -7.06066421E-05
   45.2400017      -7.27045990E-05
   45.3600006      -7.48005623E-05
   45.4799995      -7.68945683E-05
   45.5999985      -7.89866754E-05
   45.7200012      -8.10769707E-05
   45.8400002      -8.31655561E-05
   45.9599991      -8.52525845E-05
   46.0800018      -8.73382523E-05
   46.2000008      -8.94228215E-05
   46.3199997      -9.15066557E-05
   46.4399986      -9.35901553E-05
   46.5600014      -9.56738368E-05
   46.6800003      -9.77582749E-05
   46.7999992      -9.98440955E-05
   46.9199982      -1.01931946E-04
   47.0400009      -1.04022525E-04
   47.1599998      -1.06116553E-04
   47.2799988      -1.08214772E-04
   47.4000015      -1.10317989E-04
   47.5200005      -1.12427049E-04
   47.6399994      -1.14542847E-04
   47.7599983      -1.16666364E-04
   47.8800011      -1.18798620E-04
   48.0000000      -1.20940691E-04
   48.1199989      -1.23093734E-04
   48.2400017      -1.25258928E-04
   48.3600006      -1.27437510E-04
   48.4799995      -1.29630789E-04
   48.5999985      -1.31840061E-04
   48.7200012      -1.34066737E-04
   48.8400002      -1.36312185E-04
   48.9599991      -1.38577903E-04
   49.0800018      -1.40865362E-04
   49.2000008      -1.43176105E-04
   49.3199997      -1.45511629E-04
   49.4399986      -1.47873565E-04
   49.5600014      -1.50263484E-04
   49.6800003      -1.52683002E-04
   49.7999992      -1.55133777E-04
   49.9199982      -1.57617425E-04
   50.0400009      -1.60135634E-04
   50.1599998      -1.62690121E-04
   50.2799988      -1.65282603E-04
   50.4000015      -1.67914826E-04
   50.5200005      -1.70588566E-04
   50.6399994      -1.73305627E-04
   50.7599983      -1.76067799E-04
   50.8800011      -1.78876842E-04
   51.0000000      -1.81734489E-04
   51.1199989      -1.84642471E-04
   51.2400017      -1.87602476E-04
   51.3600006      -1.90616178E-04
   51.4799995      -1.93685250E-04
   51.5999985      -1.96811350E-04
   51.7200012      -1.99996066E-04
   51.8400002      -2.03240998E-04
   51.9599991      -2.06547731E-04
   52.0800018      -2.09917780E-04
   52.2000008      -2.13352672E-04
   52.3199997      -2.16853834E-04
   52.4399986      -2.20422662E-04
   52.5600014      -2.24060466E-04
   52.6800003      -2.27768527E-04
   52.7999992      -2.31547994E-04
   52.9199982      -2.35400003E-04
   53.0400009      -2.39325600E-04
   53.1599998      -2.43325747E-04
   53.2799988      -2.47401389E-04
   53.4000015      -2.51553283E-04
   53.5200005      -2.55782186E-04
   53.6399994      -2.60088738E-04
   53.7599983      -2.64473376E-04
   53.8800011      -2.68936506E-04
   54.0000000      -2.73478392E-04
   54.1199989      -2.78099178E-04
   54.2400017      -2.82798923E-04
   54.3600006      -2.87577655E-04
   54.4799995      -2.92435230E-04
   54.5999985      -2.97371385E-04
   54.7200012      -3.02385801E-04
   54.8400002      -3.07478040E-04
   54.9599991      -3.12647520E-04
   55.0800018      -3.17893602E-04
   55.2000008      -3.23215296E-04
   55.3199997      -3.28611641E-04
   55.4399986      -3.34081386E-04
   55.5600014      -3.39623133E-04
   55.6800003      -3.45235399E-04
   55.7999992      -3.50916467E-04
   55.9199982      -3.56664532E-04
   56.0400009      -3.62477673E-04
   56.1599998      -3.68353794E-04
   56.2799988      -3.74290714E-04
   56.4000015      -3.80286074E-04
   56.5200005      -3.86337400E-04
   56.6399994      -3.92442016E-04
   56.7599983      -3.98597040E-04
   56.8800011      -4.04799561E-04
   57.0000000      -4.11046349E-04
   57.1199989      -4.17334086E-04
   57.2400017      -4.23659250E-04
   57.3600006      -4.30018175E-04
   57.4799995      -4.36407077E-04
   57.5999985      -4.42822027E-04
   57.7200012      -4.49258921E-04
   57.8400002      -4.55713540E-04
   57.9599991      -4.62181546E-04
   58.0800018      -4.68658342E-04
   58.2000008      -4.75139357E-04
   58.3199997      -4.81619703E-04
   58.4399986      -4.88094433E-04
   58.5600014      -4.94558539E-04
   58.6800003      -5.01006783E-04
   58.7999992      -5.07433899E-04
   58.9199982      -5.13834471E-04
   59.0400009      -5.20202913E-04
   59.1599998      -5.26533520E-04
   59.2799988      -5.32820530E-04
   59.4000015      -5.39058121E-04
   59.5200005      -5.45240182E-04
   59.6399994      -5.51360543E-04
   59.7599983      -5.57413092E-04
   59.8800011      -5.63391543E-04
   60.0000000      -5.69289550E-04
   60.1199989      -5.75100770E-04
   60.2400017      -5.80818509E-04
   60.3600006      -5.86436363E-04
   60.4799995      -5.91947814E-04
   60.5999985      -5.97346283E-04
   60.7200012      -6.02625136E-04
   60.8400002      -6.07777620E-04
   60.9599991      -6.12797157E-04
   61.0800018      -6.17676880E-04
   61.2000008      -6.22410036E-04
   61.3199997      -6.26989815E-04
   61.4399986      -6.31409464E-04
   61.5600014      -6.35662349E-04
   61.6800003      -6.39741658E-04
   61.7999992      -6.43640989E-04
   61.9199982      -6.47353649E-04
   62.0400009      -6.50873350E-04
   62.1599998      -6.54193573E-04
   62.2799988      -6.57308090E-04
   62.4000015      -6.60210615E-04
   62.5200005      -6.62895036E-04
   62.6399994      -6.65355066E-04
   62.7599983      -6.67584885E-04
   62.8800011      -6.69578381E-04
   63.0000000      -6.71329850E-04
   63.1199989      -6.72833528E-04
   63.2400017      -6.74084004E-04
   63.3600006      -6.75075979E-04
   63.4799995      -6.75804331E-04
   63.5999985      -6.76264171E-04
   63.7200012      -6.76450785E-04
   63.8400002      -6.76359690E-04
   63.9599991      -6.75986637E-04
   64.0800018      -6.75327377E-04
   64.1999969      -6.74378127E-04
   64.3199997      -6.73135160E-04
   64.4400024      -6.71595102E-04
   64.5599976      -6.69754751E-04
   64.6800003      -6.67611137E-04
   64.8000031      -6.65161642E-04
   64.9199982      -6.62403880E-04
   65.0400009      -6.59335754E-04
   65.1600037      -6.55955402E-04
   65.2799988      -6.52261311E-04
   65.4000015      -6.48252259E-04
   65.5199966      -6.43927429E-04
   65.6399994      -6.39286300E-04
   65.7600021      -6.34328520E-04
   65.8799973      -6.29054266E-04
   66.0000000      -6.23463886E-04
   66.1200027      -6.17558195E-04
   66.2399979      -6.11338182E-04
   66.3600006      -6.04805362E-04
   66.4800034      -5.97961422E-04
   66.5999985      -5.90808515E-04
   66.7200012      -5.83349203E-04
   66.8399963      -5.75586222E-04
   66.9599991      -5.67522773E-04
   67.0800018      -5.59162465E-04
   67.1999969      -5.50509198E-04
   67.3199997      -5.41567337E-04
   67.4400024      -5.32341481E-04
   67.5599976      -5.22836694E-04
   67.6800003      -5.13058214E-04
   67.8000031      -5.03011863E-04
   67.9199982      -4.92703519E-04
   68.0400009      -4.82139672E-04
   68.1600037      -4.71326959E-04
   68.2799988      -4.60272509E-04
   68.4000015      -4.48983745E-04
   68.5199966      -4.37468465E-04
   68.6399994      -4.25734819E-04
   68.7600021      -4.13791277E-04
   68.8799973      -4.01646568E-04
   69.0000000      -3.89309658E-04
   69.1200027      -3.76789889E-04
   69.2399979      -3.64096690E-04
   69.3600006      -3.51239927E-04
   69.4800034      -3.38229671E-04
   69.5999985      -3.25076195E-04
   69.7200012      -3.11790063E-04
   69.8399963      -2.98382045E-04
   69.9599991      -2.84863170E-04
   70.0800018      -2.71244760E-04
   70.1999969      -2.57538253E-04
   70.3199997      -2.43755334E-04
   70.4400024      -2.29907848E-04
   70.5599976      -2.16007727E-04
   70.6800003      -2.02067022E-04
   70.8000031      -1.88097853E-04
   70.9199982      -1.74112443E-04
   71.0400009      -1.60123105E-04
   71.1600037      -1.46142178E-04
   71.2799988      -1.32182133E-04
   71.4000015      -1.18255433E-04
   71.5199966      -1.04374565E-04
   71.6399994      -9.05520283E-05
   71.7600021      -7.68002647E-05
   71.8799973      -6.31317162E-05
   72.0000000      -4.95587374E-05
   72.1200027      -3.60936392E-05
   72.2399979      -2.27486562E-05
   72.3600006      -9.53592553E-06
   72.4800034       3.53251448E-06
   72.5999985       1.64447683E-05
   72.7200012       2.91891429E-05