  -30.0000000       0.00000000    
  -29.8799992       0.00000000    
  -29.7600002       0.00000000    
  -29.6399994       0.00000000    
  -29.5200005       0.00000000    
  -29.3999996       0.00000000    
  -29.2800007       0.00000000    
  -29.1599998       0.00000000    
  -29.0400009       0.00000000    
  -28.9200001       0.00000000    
  -28.7999992       1.40129846E-44
  -28.6800003       1.12103877E-44
  -28.5599995      -8.33730547E-41
  -28.4400005      -8.08516984E-40
  -28.3199997      -1.03382196E-39
  -28.2000008       2.80013120E-38
  -28.0799999       2.37215526E-37
  -27.9599991       9.43280765E-37
  -27.8400002       1.54130437E-36
  -27.7199993      -4.99589368E-36
  -27.6000004      -4.56929979E-35
  -27.4799995      -1.78607550E-34
  -27.3600006      -4.40480968E-34
  -27.2399998      -5.91273934E-34
  -27.1200008       4.59800080E-34
  -27.0000000       5.19196239E-33
  -26.8799992       1.63460204E-32
  -26.7600002       3.09262572E-32
  -26.6399994       2.70507111E-32
  -26.5200005      -4.96924074E-32
  -26.3999996      -2.72890849E-31
  -26.2800007      -6.44547627E-31
  -26.1599998      -8.90200555E-31
  -26.0400009      -2.18851610E-31
  -25.9200001       2.61780918E-30
  -25.7999992       8.35066071E-30
  -25.6800003       1.47807073E-29
  -25.5599995       1.35240727E-29
  -25.4400005      -1.09595510E-29
  -25.3199997      -7.39242871E-29
  -25.2000008      -1.68260326E-28
  -25.0799999      -2.29878420E-28
  -24.9599991      -1.13171158E-28
  -24.8400002       3.73889230E-28
  -24.7199993       1.31547717E-27
  -24.6000004       2.40131397E-27
  -24.4799995       2.62923353E-27
  -24.3600006       3.17356758E-28
  -24.2399998      -6.12094048E-27
  -24.1200008      -1.63562636E-26
  -24.0000000      -2.56931812E-26
  -23.8799992      -2.36040649E-26
  -23.7600002       4.01944892E-27
  -23.6399994       6.63001414E-26
  -23.5200005       1.52635723E-25
  -23.3999996       2.17704237E-25
  -23.2800007       1.79107331E-25
  -23.1599998      -5.60953320E-26
  -23.0400009      -5.26565098E-25
  -22.9200001      -1.12580992E-24
  -22.7999992      -1.53073972E-24
  -22.6800003      -1.22466563E-24
  -22.5599995       3.10713008E-25
  -22.4400005       3.21674521E-24
  -22.3199997       6.79552631E-24
  -22.2000008       9.21708553E-24
  -22.0799999       7.74768457E-24
  -21.9599991      -2.12730370E-25
  -21.8400002      -1.53044869E-23
  -21.7199993      -3.41482109E-23
  -21.6000004      -4.81830624E-23
  -21.4799995      -4.48187663E-23
  -21.3600006      -1.19235214E-23
  -21.2399998       5.46183625E-23
  -21.1200008       1.42546673E-22
  -21.0000000       2.18327997E-22
  -20.8799992       2.30830521E-22
  -20.7600002       1.27200287E-22
  -20.6399994      -1.19795799E-22
  -20.5200005      -4.80262104E-22
  -20.3999996      -8.45367681E-22
  -20.2800007      -1.03230959E-21
  -20.1599998      -8.29549063E-22
  -20.0400009      -8.36644924E-23
  -19.9200001       1.19024808E-21
  -19.7999992       2.71398888E-21
  -19.6800003       3.92117820E-21
  -19.5599995       4.05266276E-21
  -19.4400005       2.39599246E-21
  -19.3199997      -1.36013009E-21
  -19.2000008      -6.75359851E-21
  -19.0799999      -1.23173672E-20
  -18.9599991      -1.56710579E-20
  -18.8400002      -1.40730241E-20
  -18.7199993      -5.43844434E-21
  -18.6000004       1.03778613E-20
  -18.4799995       3.04644610E-20
  -18.3600006       4.84908720E-20
  -18.2399998       5.56627347E-20
  -18.1200008       4.32603117E-20
  -18.0000000       6.44968799E-21
  -17.8799992      -5.16772008E-20
  -17.7600002      -1.17504328E-19
  -17.6399994      -1.67582876E-19
  -17.5200005      -1.73881973E-19
  -17.3999996      -1.13442910E-19
  -17.2800007       1.97295533E-20
  -17.1599998       2.04649783E-19
  -17.0400009       3.90287543E-19
  -16.9200001       5.03686147E-19
  -16.7999992       4.70451063E-19
  -16.6800003       2.44045681E-19
  -16.5599995      -1.64736418E-19
  -16.4400005      -6.70073113E-19
  -16.3199997      -1.11667697E-18
  -16.2000008      -1.31476036E-18
  -16.0799999      -1.10086335E-18
  -15.9600000      -4.09522671E-19
  -15.8400002       6.68462954E-19
  -15.7200003       1.86803356E-18
  -15.6000004       2.79196576E-18
  -15.4799995       3.01608435E-18
  -15.3599997       2.23759676E-18
  -15.2399998       4.24274998E-19
  -15.1199999      -2.09071658E-18
  -15.0000000      -4.61968006E-18
  -14.8800001      -6.26429875E-18
  -14.7600002      -6.17896845E-18
  -14.6400003      -3.89222475E-18
  -14.5200005       4.14039388E-19
  -14.3999996       5.78141097E-18
  -14.2799997       1.05976337E-17
  -14.1599998       1.29913199E-17
  -14.0400000       1.14333152E-17
  -13.9200001       5.38531595E-18
  -13.8000002      -4.22697441E-18
  -13.6800003      -1.49388868E-17
  -13.5600004      -2.32110089E-17
  -13.4399996      -2.54158109E-17
  -13.3199997      -1.91317793E-17
  -13.1999998      -4.35340028E-18
  -13.0799999       1.58560895E-17
  -12.9600000       3.56690074E-17
  -12.8400002       4.79060163E-17
  -12.7200003       4.63279079E-17
  -12.6000004       2.81727493E-17
  -12.4799995      -3.96887627E-18
  -12.3599997      -4.18404001E-17
  -12.2399998      -7.32946808E-17
  -12.1199999      -8.59915657E-17
  -12.0000000      -7.20270298E-17
  -11.8800001      -3.18612667E-17
  -11.7600002       2.42213009E-17
  -11.6400003       7.83069320E-17
  -11.5200005       1.10640866E-16
  -11.3999996       1.07389233E-16
  -11.2799997       6.74874758E-17
  -11.1599998       5.35730058E-18
  -11.0400000      -5.27131069E-17
  -10.9200001      -7.84597752E-17
  -10.8000002      -5.48862494E-17
  -10.6800003       1.23665495E-17
  -10.5600004       9.13296004E-17
  -10.4399996       1.31628205E-16
  -10.3199997       8.38073390E-17
  -10.1999998      -7.53360235E-17
  -10.0799999      -3.21042507E-16
  -9.96000004      -5.73335532E-16
  -9.84000015      -7.11940192E-16
  -9.72000027      -6.13906504E-16
  -9.60000038      -2.05165898E-16
  -9.47999954       4.90865599E-16
  -9.35999966       1.32793622E-15
  -9.23999977       2.05144244E-15
  -9.11999989       2.35833052E-15
  -9.00000000       1.99230641E-15
  -8.88000011       8.48731407E-16
  -8.76000023      -9.45983760E-16
  -8.64000034      -3.01462054E-15
  -8.52000046      -4.78970662E-15
  -8.39999962      -5.65159059E-15
  -8.27999973      -5.11409229E-15
  -8.15999985      -3.00574533E-15
  -8.03999996       4.13595812E-16
  -7.92000008       4.45021920E-15
  -7.80000019       8.10810430E-15
  -7.67999983       1.03336698E-14
  -7.55999994       1.03127828E-14
  -7.44000006       7.73402914E-15
  -7.32000017       2.93281622E-15
  -7.19999981      -3.13972900E-15
  -7.07999992      -9.12794722E-15
  -6.96000004      -1.36106429E-14
  -6.84000015      -1.54719817E-14
  -6.71999979      -1.41947543E-14
  -6.59999990      -9.98914340E-15
  -6.48000002      -3.72235405E-15
  -6.36000013       3.32209710E-15
  -6.23999977       9.77488981E-15
  -6.11999989       1.44990340E-14
  -6.00000000       1.68083795E-14
  -5.88000011       1.65422418E-14
  -5.76000023       1.40034883E-14
  -5.63999987       9.80680008E-15
  -5.51999998       4.69731354E-15
  -5.40000010      -6.12129165E-16
  -5.28000021      -5.56146714E-15
  -5.15999985      -9.81785555E-15
  -5.03999996      -1.33039586E-14
  -4.92000008      -1.61691102E-14
  -4.80000019      -1.86818792E-14
  -4.67999983      -2.10310234E-14
  -4.55999994      -2.30597249E-14
  -4.44000006      -2.40162962E-14
  -4.32000017      -2.24551890E-14
  -4.19999981      -1.64281193E-14
  -4.07999992      -4.04043017E-15
  -3.96000004       1.56848598E-14
  -3.83999991       4.18550286E-14
  -3.72000003       7.10136702E-14
  -3.59999990       9.70741635E-14
  -3.48000002       1.12132173E-13
  -3.35999990       1.08162401E-13
  -3.24000001       7.92975914E-14
  -3.11999989       2.41223972E-14
  -3.00000000      -5.27054156E-14
  -2.88000011      -1.40109373E-13
  -2.75999999      -2.21841927E-13
  -2.64000010      -2.79233559E-13
  -2.51999998      -2.94939474E-13
  -2.40000010      -2.56891351E-13
  -2.27999997      -1.61581238E-13
  -2.16000009      -1.59501522E-14
  -2.03999996       1.62531745E-13
  -1.91999996       3.47630074E-13
  -1.79999995       5.07671704E-13
  -1.67999995       6.09955391E-13
  -1.55999994       6.25725762E-13
  -1.44000006       5.35227841E-13
  -1.32000005       3.32387573E-13
  -1.20000005       2.85959543E-14
  -1.08000004      -3.45105617E-13
 -0.959999979      -7.38346613E-13
 -0.839999974      -1.08522338E-12
 -0.720000029      -1.31225076E-12
 -0.600000024      -1.35039679E-12
 -0.479999989      -1.14994386E-12
 -0.360000014      -6.95585245E-13
 -0.239999995      -1.81211772E-14
 -0.119999997       8.01138615E-13
  -1.11022302E-15   1.63625927E-12
  0.119999997       2.33378356E-12
  0.239999995       2.73914984E-12
  0.360000014       2.72768852E-12
  0.479999989       2.23355405E-12
  0.600000024       1.26969605E-12
  0.720000029      -6.63371606E-14
  0.839999974      -1.60271839E-12
  0.959999979      -3.11785190E-12
   1.08000004      -4.37382465E-12
   1.20000005      -5.15183512E-12
   1.32000005      -5.28304874E-12
   1.44000006      -4.67052655E-12
   1.55999994      -3.30103458E-12
   1.67999995      -1.24824673E-12
   1.79999995       1.32980660E-12
   1.91999996       4.19679048E-12
   2.03999996       7.04744032E-12
   2.16000009       9.52256069E-12
   2.27999997       1.12334395E-11
   2.40000010       1.17989073E-11
   2.51999998       1.08952777E-11
   2.64000010       8.31472998E-12
   2.75999999       4.02280596E-12
   2.88000011      -1.79753044E-12
   3.00000000      -8.72780060E-12
   3.11999989      -1.61305483E-11
   3.24000001      -2.32019889E-11
   3.35999990      -2.90536345E-11
   3.48000002      -3.28079265E-11
   3.59999990      -3.36885728E-11
   3.72000003      -3.10867478E-11
   3.83999991      -2.45897972E-11
   3.96000004      -1.39685520E-11
   4.07999992       8.70235524E-13
   4.19999981       1.99510217E-11
   4.32000017       4.32964463E-11
   4.44000006       7.09756143E-11
   4.55999994       1.03121366E-10
   4.67999983       1.39913858E-10
   4.80000019       1.81536980E-10
   4.92000008       2.28121549E-10
   5.03999996       2.79690798E-10
   5.15999985       3.36121520E-10
   5.28000021       3.97128441E-10
   5.40000010       4.62272248E-10
   5.51999998       5.30987532E-10
   5.63999987       6.02624728E-10
   5.76000023       6.76503520E-10
   5.88000011       7.51974705E-10
   6.00000000       8.28493607E-10
   6.11999989       9.05703623E-10
   6.23999977       9.83523374E-10
   6.36000013       1.06222420E-09
   6.48000002       1.14248000E-09
   6.59999990       1.22536681E-09
   6.71999979       1.31230260E-09
   6.84000015       1.40492895E-09
   6.96000004       1.50495449E-09
   7.07999992       1.61399827E-09
   7.19999981       1.73347325E-09
   7.32000017       1.86454097E-09
   7.44000006       2.00815120E-09
   7.55999994       2.16514451E-09
   7.67999983       2.33637709E-09
   7.80000019       2.52281041E-09
   7.92000008       2.72552181E-09
   8.03999996       2.94561464E-09
   8.15999985       3.18405569E-09
   8.27999973       3.44149109E-09
   8.39999962       3.71812292E-09
   8.52000046       4.01371425E-09
   8.64000034       4.32775016E-09
   8.76000023       4.65973571E-09
   8.88000011       5.00956121E-09
   9.00000000       5.37782352E-09
   9.11999989       5.76601300E-09
   9.23999977       6.17650420E-09
   9.35999966       6.61235600E-09
   9.47999954       7.07698300E-09
   9.60000038       7.57381446E-09
   9.72000027       8.10605183E-09
   9.84000015       8.67659544E-09
   9.96000004       9.28814803E-09
   10.0799999       9.94344163E-09
   10.1999998       1.06454694E-08
   10.3199997       1.13976117E-08
   10.4399996       1.22035937E-08
   10.5600004       1.30672655E-08
   10.6800003       1.39922829E-08
   10.8000002       1.49818238E-08
   10.9200001       1.60384630E-08
   11.0400000       1.71643038E-08
   11.1599998       1.83613551E-08
   11.2799997       1.96320773E-08
   11.3999996       2.09799307E-08
   11.5200005       2.24097398E-08
   11.6400003       2.39277718E-08
   11.7600002       2.55414374E-08
   11.8800001       2.72587375E-08
   12.0000000       2.90875590E-08
   12.1199999       3.10350465E-08
   12.2399998       3.31072378E-08
   12.3599997       3.53090321E-08
   12.4799995       3.76445186E-08
   12.6000004       4.01175555E-08
   12.7200003       4.27324167E-08
   12.8400002       4.54942999E-08
   12.9600000       4.84096425E-08
   13.0799999       5.14860972E-08
   13.1999998       5.47323467E-08
   13.3199997       5.81577382E-08
   13.4399996       6.17720204E-08
   13.5600004       6.55851764E-08
   13.6800003       6.96074238E-08
   13.8000002       7.38494137E-08
   13.9200001       7.83223442E-08
   14.0400000       8.30380671E-08
   14.1599998       8.80090312E-08
   14.2799997       9.32480120E-08
   14.3999996       9.87678277E-08
   14.5200005       1.04581012E-07
   14.6400003       1.10699794E-07
   14.7600002       1.17136111E-07
   14.8800001       1.23902069E-07
   15.0000000       1.31010324E-07
   15.1199999       1.38474704E-07
   15.2399998       1.46310427E-07
   15.3599997       1.54534206E-07
   15.4799995       1.63164074E-07
   15.6000004       1.72218819E-07
   15.7200003       1.81717610E-07
   15.8400002       1.91679462E-07
   15.9600000       2.02122919E-07
   16.0799999       2.13066059E-07
   16.2000008       2.24526559E-07
   16.3199997       2.36521998E-07
   16.4400005       2.49070183E-07
   16.5599995       2.62189445E-07
   16.6800003       2.75898998E-07
   16.7999992       2.90219106E-07
   16.9200001       3.05171397E-07
   17.0400009       3.20778895E-07
   17.1599998       3.37066069E-07
   17.2800007       3.54058557E-07
   17.3999996       3.71782875E-07
   17.5200005       3.90265626E-07
   17.6399994       4.09532959E-07
   17.7600002       4.29609997E-07
   17.8799992       4.50520588E-07
   18.0000000       4.72287752E-07
   18.1200008       4.94934170E-07
   18.2399998       5.18483319E-07
   18.3600006       5.42960152E-07
   18.4799995       5.68392011E-07
   18.6000004       5.94808341E-07
   18.7199993       6.22240066E-07
   18.8400002       6.50717993E-07
   18.9599991       6.80271739E-07
   19.0799999       7.10928305E-07
   19.2000008       7.42711507E-07
   19.3199997       7.75642775E-07
   19.4400005       8.09742573E-07
   19.5599995       8.45032105E-07
   19.6800003       8.81535414E-07
   19.7999992       9.19280467E-07
   19.9200001       9.58299097E-07
   20.0400009       9.98625865E-07
   20.1599998       1.04029630E-06
   20.2800007       1.08334393E-06
   20.3999996       1.12779935E-06
   20.5200005       1.17368734E-06
   20.6399994       1.22102858E-06
   20.7600002       1.26984003E-06
   20.8799992       1.32013690E-06
   21.0000000       1.37193547E-06
   21.1200008       1.42525460E-06
   21.2399998       1.48011736E-06
   21.3600006       1.53654992E-06
   21.4799995       1.59458057E-06
   21.6000004       1.65423762E-06
   21.7199993       1.71554655E-06
   21.8400002       1.77852883E-06
   21.9599991       1.84320004E-06
   22.0799999       1.90957053E-06
   22.2000008       1.97764643E-06
   22.3199997       2.04743128E-06
   22.4400005       2.11892802E-06
   22.5599995       2.19214144E-06
   22.6800003       2.26707834E-06
   22.7999992       2.34374670E-06
   22.9200001       2.42215606E-06
   23.0400009       2.50231369E-06
   23.1599998       2.58422506E-06
   23.2800007       2.66789039E-06
   23.3999996       2.75330535E-06
   23.5200005       2.84046200E-06
   23.6399994       2.92934806E-06
   23.7600002       3.01995146E-06
   23.8799992       3.11226017E-06
   24.0000000       3.20626259E-06
   24.1200008       3.30194985E-06
   24.2399998       3.39931148E-06
   24.3600006       3.49833635E-06
   24.4799995       3.59900946E-06
   24.6000004       3.70131102E-06
   24.7199993       3.80521487E-06
   24.8400002       3.91068897E-06
   24.9599991       4.01769512E-06
   25.0799999       4.12618920E-06
   25.2000008       4.23612482E-06
   25.3199997       4.34745471E-06
   25.4400005       4.46012973E-06
   25.5599995       4.57410033E-06
   25.6800003       4.68932058E-06
   25.7999992       4.80574181E-06
   25.9200001       4.92331765E-06
   26.0400009       5.04199943E-06
   26.1599998       5.16173850E-06
   26.2800007       5.28248074E-06
   26.3999996       5.40416977E-06
   26.5200005       5.52674373E-06
   26.6399994       5.65013443E-06
   26.7600002       5.77427090E-06
   26.8799992       5.89907677E-06
   27.0000000       6.02447471E-06
   27.1200008       6.15038516E-06
   27.2399998       6.27672625E-06
   27.3600006       6.40341977E-06
   27.4799995       6.53038478E-06
   27.6000004       6.65754214E-06
   27.7199993       6.78480819E-06
   27.8400002       6.91209925E-06
   27.9599991       7.03932574E-06
   28.0799999       7.16639488E-06
   28.2000008       7.29321300E-06
   28.3199997       7.41968142E-06
   28.4400005       7.54570192E-06
   28.5599995       7.67117945E-06
   28.6800003       7.79601669E-06
   28.7999992       7.92011997E-06
   28.9200001       8.04339470E-06
   29.0400009       8.16574538E-06
   29.1599998       8.28707743E-06
   29.2800007       8.40728990E-06
   29.3999996       8.52628091E-06
   29.5200005       8.64394951E-06
   29.6399994       8.76019294E-06
   29.7600002       8.87490933E-06
   29.8799992       8.98800135E-06
   30.0000000       9.09936989E-06
   30.1200008       9.20891853E-06
   30.2399998       9.31655177E-06
   30.3600006       9.42217594E-06
   30.4799995       9.52569735E-06
   30.6000004       9.62702779E-06
   30.7199993       9.72608086E-06
   30.8400002       9.82277379E-06
   30.9599991       9.91702836E-06
   31.0799999       1.00087691E-05
   31.2000008       1.00979205E-05
   31.3199997       1.01844071E-05
   31.4400005       1.02681506E-05
   31.5599995       1.03490738E-05
   31.6800003       1.04270966E-05
   31.7999992       1.05021436E-05
   31.9200001       1.05741428E-05
   32.0400009       1.06430352E-05
   32.1599998       1.07087735E-05
   32.2799988       1.07713222E-05
   32.4000015       1.08306549E-05
   32.5200005       1.08867516E-05
   32.6399994       1.09395960E-05
   32.7599983       1.09891689E-05
   32.8800011       1.10354486E-05
   33.0000000       1.10784094E-05
   33.1199989       1.11180270E-05
   33.2400017       1.11542759E-05
   33.3600006       1.11871432E-05
   33.4799995       1.12166217E-05
   33.5999985       1.12427197E-05
   33.7200012       1.12654607E-05
   33.8400002       1.12848784E-05
   33.9599991       1.13010110E-05
   34.0800018       1.13139067E-05
   34.2000008       1.13236092E-05
   34.3199997       1.13301649E-05
   34.4399986       1.13336137E-05
   34.5600014       1.13339993E-05
   34.6800003       1.13313654E-05
   34.7999992       1.13257674E-05
   34.9199982       1.13172673E-05
   35.0400009       1.13059441E-05
   35.1599998       1.12918869E-05
   35.2799988       1.12751959E-05
   35.4000015       1.12559828E-05
   35.5200005       1.12343687E-05
   35.6399994       1.12104744E-05
   35.7599983       1.11844302E-05
   35.8800011       1.11563713E-05
   36.0000000       1.11264371E-05
   36.1199989       1.10947776E-05
   36.2400017       1.10615447E-05
   36.3600006       1.10268938E-05
   36.4799995       1.09909824E-05
   36.5999985       1.09539706E-05
   36.7200012       1.09160173E-05
   36.8400002       1.08772883E-05
   36.9599991       1.08379536E-05
   37.0800018       1.07981959E-05
   37.2000008       1.07582109E-05
   37.3199997       1.07182113E-05
   37.4399986       1.06784255E-05
   37.5600014       1.06390917E-05
   37.6800003       1.06004518E-05
   37.7999992       1.05627460E-05
   37.9199982       1.05262070E-05
   38.0400009       1.04910550E-05
   38.1599998       1.04575074E-05
   38.2799988       1.04257724E-05
   38.4000015       1.03960674E-05
   38.5200005       1.03686207E-05
   38.6399994       1.03436778E-05
   38.7599983       1.03214998E-05
   38.8800011       1.03023649E-05
   39.0000000       1.02865606E-05
   39.1199989       1.02743761E-05
   39.2400017       1.02660961E-05
   39.3600006       1.02619979E-05
   39.4799995       1.02623462E-05
   39.5999985       1.02674021E-05
   39.7200012       1.02774220E-05
   39.8400002       1.02926642E-05
   39.9599991       1.03133880E-05
   40.0800018       1.03398606E-05
   40.2000008       1.03723551E-05
   40.3199997       1.04111468E-05
   40.4399986       1.04565152E-05
   40.5600014       1.05087347E-05
   40.6800003       1.05680801E-05
   40.7999992       1.06348170E-05
   40.9199982       1.07092019E-05
   41.0400009       1.07914830E-05
   41.1599998       1.08818977E-05
   41.2799988       1.09806679E-05
   41.4000015       1.10880101E-05
   41.5200005       1.12041325E-05
   41.6399994       1.13292399E-05
   41.7599983       1.14635377E-05
   41.8800011       1.16072297E-05
   42.0000000       1.17605232E-05
   42.1199989       1.19236247E-05
   42.2400017       1.20967343E-05
   42.3600006       1.22800384E-05
   42.4799995       1.24737080E-05
   42.5999985       1.26778914E-05
   42.7200012       1.28927250E-05
   42.8400002       1.31183233E-05
   42.9599991       1.33547865E-05
   43.0800018       1.36022063E-05
   43.2000008       1.38606620E-05
   43.3199997       1.41302326E-05
   43.4399986       1.44109872E-05
   43.5600014       1.47029887E-05
   43.6800003       1.50062933E-05
   43.7999992       1.53209439E-05
   43.9199982       1.56469687E-05
   44.0400009       1.59843803E-05
   44.1599998       1.63331624E-05
   44.2799988       1.66932768E-05
   44.4000015       1.70646526E-05
   44.5200005       1.74471879E-05
   44.6399994       1.78407536E-05
   44.7599983       1.82451986E-05
   44.8800011       1.86603502E-05
   45.0000000       1.90860155E-05
   45.1199989       1.95219818E-05
   45.2400017       1.99680253E-05
   45.3600006       2.04239041E-05
   45.4799995       2.08893471E-05
   45.5999985       2.13640706E-05
   45.7200012       2.18477562E-05
   45.8400002       2.23400675E-05
   45.9599991       2.28406443E-05
   46.0800018       2.33490973E-05
   46.2000008       2.38650136E-05
   46.3199997       2.43879513E-05
   46.4399986       2.49174409E-05
   46.5600014       2.54529768E-05
   46.6800003       2.59940207E-05
   46.7999992       2.65400013E-05
   46.9199982       2.70903292E-05
   47.0400009       2.76443952E-05
   47.1599998       2.82015681E-05
   47.2799988       2.87612038E-05
   47.4000015       2.93226349E-05
   47.5200005       2.98851755E-05
   47.6399994       3.04480927E-05
   47.7599983       3.10106261E-05
   47.8800011       3.15719699E-05
   48.0000000       3.21312837E-05
   48.1199989       3.26876798E-05
   48.2400017       3.32402633E-05
   48.3600006       3.37881102E-05
   48.4799995       3.43302781E-05
   48.5999985       3.48658141E-05
   48.7200012       3.53937576E-05
   48.8400002       3.59131154E-05
   48.9599991       3.64228690E-05
   49.0800018       3.69219742E-05
   49.2000008       3.74093324E-05
   49.3199997       3.78838231E-05
   49.4399986       3.83442894E-05
   49.5600014       3.87895452E-05
   49.6800003       3.92184011E-05
   49.7999992       3.96296346E-05
   49.9199982       4.00220379E-05
   50.0400009       4.03943741E-05
   50.1599998       4.07453990E-05
   50.2799988       4.10738721E-05
   50.4000015       4.13785347E-05
   50.5200005       4.16580988E-05
   50.6399994       4.19112657E-05
   50.7599983       4.21367222E-05
   50.8800011       4.23331221E-05
   51.0000000       4.24991122E-05
   51.1199989       4.26333027E-05
   51.2400017       4.27342857E-05
   51.3600006       4.28006497E-05
   51.4799995       4.28309831E-05
   51.5999985       4.28238964E-05
   51.7200012       4.27779960E-05
   51.8400002       4.26919214E-05
   51.9599991       4.25643047E-05
   52.0800018       4.23937927E-05
   52.2000008       4.21790282E-05
   52.3199997       4.19186399E-05
   52.4399986       4.16112707E-05
   52.5600014       4.12555528E-05
   52.6800003       4.08501364E-05
   52.7999992       4.03936792E-05
   52.9199982       3.98848497E-05
   53.0400009       3.93223308E-05
   53.1599998       3.87048131E-05
   53.2799988       3.80310084E-05
   53.4000015       3.72996547E-05
   53.5200005       3.65095148E-05
   53.6399994       3.56593919E-05
   53.7599983       3.47481182E-05
   53.8800011       3.37745660E-05
   54.0000000       3.27376292E-05
   54.1199989       3.16362275E-05
   54.2400017       3.04693131E-05
   54.3600006       2.92358527E-05
   54.4799995       2.79348551E-05
   54.5999985       2.65653907E-05
   54.7200012       2.51265683E-05
   54.8400002       2.36175583E-05
   54.9599991       2.20375750E-05
   55.0800018       2.03858726E-05
   55.2000008       1.86617417E-05
   55.3199997       1.68645038E-05
   55.4399986       1.49935177E-05
   55.5600014       1.30481931E-05
   55.6800003       1.10279989E-05
   55.7999992       8.93247943E-06
   55.9199982       6.76126092E-06
   56.0400009       4.51405185E-06
   56.1599998       2.19063577E-06
   56.2799988      -2.09142627E-07
   56.4000015      -2.68538861E-06
   56.5200005      -5.23815925E-06
   56.6399994      -7.86747023E-06
   56.7599983      -1.05732934E-05
   56.8800011      -1.33555413E-05
   57.0000000      -1.62140477E-05
   57.1199989      -1.91485615E-05
   57.2400017      -2.21587270E-05
   57.3600006      -2.52440877E-05
   57.4799995      -2.84040834E-05
   57.5999985      -3.16380647E-05
   57.7200012      -3.49452857E-05
   57.8400002      -3.83249208E-05
   57.9599991      -4.17760639E-05
   58.0800018      -4.52977365E-05
   58.2000008      -4.88888945E-05
   58.3199997      -5.25484029E-05
   58.4399986      -5.62750756E-05
   58.5600014      -6.00676358E-05
   58.6800003      -6.39247228E-05
   58.7999992      -6.78448851E-05
   58.9199982      -7.18265510E-05
   59.0400009      -7.58680835E-05
   59.1599998      -7.99677291E-05
   59.2799988      -8.41236397E-05
   59.4000015      -8.83338726E-05
   59.5200005      -9.25964123E-05
   59.6399994      -9.69091489E-05
   59.7599983      -1.01269899E-04
   59.8800011      -1.05676409E-04
   60.0000000      -1.10126333E-04
   60.1199989      -1.14617258E-04
   60.2400017      -1.19146665E-04
   60.3600006      -1.23711958E-04
   60.4799995      -1.28310465E-04
   60.5999985      -1.32939444E-04
   60.7200012      -1.37596013E-04
   60.8400002      -1.42277277E-04
   60.9599991      -1.46980179E-04
   61.0800018      -1.51701577E-04
   61.2000008      -1.56438298E-04
   61.3199997      -1.61187039E-04
   61.4399986      -1.65944482E-04
   61.5600014      -1.70707222E-04
   61.6800003      -1.75471796E-04
   61.7999992      -1.80234711E-04
   61.9199982      -1.84992357E-04
   62.0400009      -1.89741098E-04
   62.1599998      -1.94477238E-04
   62.2799988      -1.99197035E-04
   62.4000015      -2.03896634E-04
   62.5200005      -2.08572179E-04
   62.6399994      -2.13219697E-04
   62.7599983      -2.17835201E-04
   62.8800011      -2.22414732E-04
   63.0000000      -2.26954216E-04
   63.1199989      -2.31449623E-04
   63.2400017      -2.35896892E-04
   63.3600006      -2.40291993E-04
   63.4799995      -2.44630850E-04
   63.5999985      -2.48909346E-04
   63.7200012      -2.53123435E-04
   63.8400002      -2.57268955E-04
   63.9599991      -2.61341775E-04
   64.0800018      -2.65337701E-04
   64.1999969      -2.69252690E-04
   64.3199997      -2.73082609E-04
   64.4400024      -2.76823324E-04
   64.5599976      -2.80470820E-04
   64.6800003      -2.84021080E-04
   64.8000031      -2.87470059E-04
   64.9199982      -2.90813856E-04
   65.0400009      -2.94048485E-04
   65.1600037      -2.97170249E-04
   65.2799988      -3.00175365E-04
   65.4000015      -3.03060107E-04
   65.5199966      -3.05820897E-04
   65.6399994      -3.08454182E-04
   65.7600021      -3.10956384E-04
   65.8799973      -3.13324097E-04
   66.0000000      -3.15553974E-04
   66.1200027      -3.17642785E-04
   66.2399979      -3.19587416E-04
   66.3600006      -3.21384781E-04
   66.4800034      -3.23032058E-04
   66.5999985      -3.24526511E-04
   66.7200012      -3.25865432E-04
   66.8399963      -3.27046291E-04
   66.9599991      -3.28066730E-04
   67.0800018      -3.28924449E-04
   67.1999969      -3.29617382E-04
   67.3199997      -3.30143492E-04
   67.4400024      -3.30501003E-04
   67.5599976      -3.30688228E-04
   67.6800003      -3.30703711E-04
   67.8000031      -3.30546231E-04
   67.9199982      -3.30214563E-04
   68.0400009      -3.29707866E-04
   68.1600037      -3.29025264E-04
   68.2799988      -3.28166177E-04
   68.4000015      -3.27130139E-04
   68.5199966      -3.25916975E-04
   68.6399994      -3.24526627E-04
   68.7600021      -3.22959299E-04
   68.8799973      -3.21215368E-04
   69.0000000      -3.19295446E-04
   69.1200027      -3.17200174E-04
   69.2399979      -3.14930541E-04
   69.3600006      -3.12487566E-04
   69.4800034      -3.09872587E-04
   69.5999985      -3.07087117E-04
   69.7200012      -3.04132845E-04
   69.8399963      -3.01011838E-04
   69.9599991      -2.97726219E-04
   70.0800018      -2.94278376E-04
   70.1999969      -2.90670927E-04
   70.3199997      -2.86906637E-04
   70.4400024      -2.82988447E-04
   70.5599976      -2.78919499E-04
   70.6800003      -2.74703081E-04
   70.8000031      -2.70342716E-04
   70.9199982      -2.65842071E-04
   71.0400009      -2.61204957E-04
   71.1600037      -2.56435480E-04
   71.2799988      -2.51537771E-04
   71.4000015      -2.46516225E-04
   71.5199966      -2.41375397E-04
   71.6399994      -2.36120046E-04
   71.7600021      -2.30755104E-04
   71.8799973      -2.25285621E-04
   72.0000000      -2.19716821E-04
   72.1200027      -2.14054075E-04
   72.2399979      -2.08302765E-04
   72.3600006      -2.02468495E-04
   72.4800034      -1.96556866E-04
   72.5999985      -1.90573643E-04
   72.7200012      -1.84524702E-04