  -30.0000000       0.00000000    
  -29.8799992       0.00000000    
  -29.7600002       0.00000000    
  -29.6399994       0.00000000    
  -29.5200005      -1.40129846E-45
  -29.3999996      -4.20389539E-45
  -29.2800007       1.31722056E-43
  -29.1599998       6.62814174E-43
  -29.0400009       7.17464814E-43
  -28.9200001      -3.58732407E-42
  -28.7999992      -2.06046926E-41
  -28.6800003      -4.71719102E-41
  -28.5599995      -3.86141805E-41
  -28.4400005       1.12032411E-40
  -28.3199997       5.10351499E-40
  -28.2000008       1.05009103E-39
  -28.0799999       1.09933686E-39
  -27.9599991      -6.20473941E-40
  -27.8400002      -5.42062884E-39
  -27.7199993      -1.28131172E-38
  -27.6000004      -1.77468257E-38
  -27.4799995      -8.82588220E-39
  -27.3600006       2.86534679E-38
  -27.2399998       1.00603544E-37
  -27.1200008       1.82605770E-37
  -27.0000000       1.98654572E-37
  -26.8799992       2.39459711E-38
  -26.7600002      -4.56348158E-37
  -26.6399994      -1.21491806E-36
  -26.5200005      -1.91097758E-36
  -26.3999996      -1.79671897E-36
  -26.2800007       1.12159694E-37
  -26.1599998       4.44208080E-36
  -26.0400009       1.04873209E-35
  -25.9200001       1.52832991E-35
  -25.7999992       1.35614180E-35
  -25.6800003      -4.78438676E-37
  -25.5599995      -2.92136060E-35
  -25.4400005      -6.64821436E-35
  -25.3199997      -9.41198123E-35
  -25.2000008      -8.41308596E-35
  -25.0799999      -9.63335557E-36
  -24.9599991       1.36029722E-34
  -24.8400002       3.18733778E-34
  -24.7199993       4.54175615E-34
  -24.6000004       4.23758550E-34
  -24.4799995       1.23183462E-34
  -24.3600006      -4.64583928E-34
  -24.2399998      -1.20064717E-33
  -24.1200008      -1.76955669E-33
  -24.0000000      -1.74812742E-33
  -23.8799992      -7.77096448E-34
  -23.7600002       1.20209560E-33
  -23.6399994       3.74033229E-33
  -23.5200005       5.83296680E-33
  -23.3999996       6.14183676E-33
  -23.2800007       3.51084971E-33
  -23.1599998      -2.34284032E-33
  -23.0400009      -1.02278250E-32
  -22.9200001      -1.73145660E-32
  -22.7999992      -1.97002215E-32
  -22.6800003      -1.37707282E-32
  -22.5599995       1.92453496E-33
  -22.4400005       2.49384300E-32
  -22.3199997       4.82023302E-32
  -22.2000008       6.10897773E-32
  -22.0799999       5.25624826E-32
  -21.9599991       1.58901857E-32
  -21.8400002      -4.64566388E-32
  -21.7199993      -1.19772577E-31
  -21.6000004      -1.77978673E-31
  -21.4799995      -1.89575183E-31
  -21.3600006      -1.28243789E-31
  -21.2399998       1.43853457E-32
  -21.1200008       2.18053591E-31
  -21.0000000       4.30236481E-31
  -20.8799992       5.73520167E-31
  -20.7600002       5.65126009E-31
  -20.6399994       3.45519755E-31
  -20.5200005      -9.13515157E-32
  -20.3999996      -6.76651506E-31
  -20.2800007      -1.26459955E-30
  -20.1599998      -1.65654237E-30
  -20.0400009      -1.65067036E-30
  -19.9200001      -1.10783393E-30
  -19.7999992      -1.58883578E-32
  -19.6800003       1.46889972E-30
  -19.5599995       3.02229829E-30
  -19.4400005       4.20399587E-30
  -19.3199997       4.55637371E-30
  -19.2000008       3.73067037E-30
  -19.0799999       1.60995293E-30
  -18.9599991      -1.60515428E-30
  -18.8400002      -5.37644409E-30
  -18.7199993      -8.88884378E-30
  -18.6000004      -1.11890699E-29
  -18.4799995      -1.13814207E-29
  -18.3600006      -8.84569166E-30
  -18.2399998      -3.43449996E-30
  -18.1200008       4.39248347E-30
  -18.0000000       1.35317042E-29
  -17.8799992       2.23159368E-29
  -17.7600002       2.87130757E-29
  -17.6399994       3.06277449E-29
  -17.5200005       2.62776319E-29
  -17.3999996       1.46103679E-29
  -17.2800007      -4.27687614E-30
  -17.1599998      -2.87620906E-29
  -17.0400009      -5.54382124E-29
  -16.9200001      -7.90786835E-29
  -16.7999992      -9.29818695E-29
  -16.6800003      -8.98620194E-29
  -16.5599995      -6.33991642E-29
  -16.4400005      -1.04023734E-29
  -16.3199997       6.67236684E-29
  -16.2000008       1.57840816E-28
  -16.0799999       2.44178137E-28
  -15.9600000       2.99672894E-28
  -15.8400002       2.95322507E-28
  -15.7200003       2.06680426E-28
  -15.6000004       2.36098157E-29
  -15.4799995      -2.39821852E-28
  -15.3599997      -5.38546876E-28
  -15.2399998      -7.96611858E-28
  -15.1199999      -9.17559152E-28
  -15.0000000      -8.06575127E-28
  -14.8800001      -4.02562258E-28
  -14.7600002       2.86124940E-28
  -14.6400003       1.15298704E-27
  -14.5200005       1.98527825E-27
  -14.3999996       2.48935247E-27
  -14.2799997       2.35650606E-27
  -14.1599998       1.36499274E-27
  -14.0400000      -5.01514758E-28
  -13.9200001      -2.95439194E-27
  -13.8000002      -5.36488470E-27
  -13.6800003      -6.83675625E-27
  -13.5600004      -6.41119083E-27
  -13.4399996      -3.39124601E-27
  -13.3199997       2.27707474E-27
  -13.1999998       9.68106743E-27
  -13.0799999       1.68223617E-26
  -12.9600000       2.08455832E-26
  -12.8400002       1.86978539E-26
  -12.7200003       8.18289654E-27
  -12.6000004      -1.07908406E-26
  -12.4799995      -3.51392605E-26
  -12.3599997      -5.81962781E-26
  -12.2399998      -7.04513925E-26
  -12.1199999      -6.17197623E-26
  -12.0000000      -2.46415803E-26
  -11.8800001       4.11377065E-26
  -11.7600002       1.25326036E-25
  -11.6400003       2.05500189E-25
  -11.5200005       2.49391916E-25
  -11.3999996       2.21958884E-25
  -11.2799997       9.69929628E-26
  -11.1599998      -1.28763695E-25
  -11.0400000      -4.22932046E-25
  -10.9200001      -7.11578470E-25
  -10.8000002      -8.85551882E-25
  -10.6800003      -8.22798983E-25
  -10.5600004      -4.26414571E-25
  -10.4399996       3.27613466E-25
  -10.3199997       1.34544921E-24
  -10.1999998       2.39080390E-24
  -10.0799999       3.09949228E-24
  -9.96000004       3.04707523E-24
  -9.84000015       1.87131770E-24
  -9.72000027      -5.67512402E-25
  -9.60000038      -4.02713413E-24
  -9.47999954      -7.78152750E-24
  -9.35999966      -1.06410363E-23
  -9.23999977      -1.11461881E-23
  -9.11999989      -7.95096772E-24
  -9.00000000      -3.52390724E-25
  -8.88000011       1.11486099E-23
  -8.76000023       2.44358927E-23
  -8.64000034       3.57315841E-23
  -8.52000046       4.01055243E-23
  -8.39999962       3.26303668E-23
  -8.27999973       1.00917469E-23
  -8.15999985      -2.70712198E-23
  -8.03999996      -7.31527189E-23
  -7.92000008      -1.16603499E-22
  -7.80000019      -1.41180291E-22
  -7.67999983      -1.29248056E-22
  -7.55999994      -6.71307377E-23
  -7.44000006       4.83367451E-23
  -7.32000017       2.03705456E-22
  -7.19999981       3.65529442E-22
  -7.07999992       4.82120180E-22
  -6.96000004       4.92261524E-22
  -6.84000015       3.41230279E-22
  -6.71999979       2.19269312E-24
  -6.59999990      -5.01631576E-22
  -6.48000002      -1.08103661E-21
  -6.36000013      -1.57929630E-21
  -6.23999977      -1.79222008E-21
  -6.11999989      -1.51320273E-21
  -6.00000000      -6.00050771E-22
  -5.88000011       9.48221713E-22
  -5.76000023       2.92507059E-21
  -5.63999987       4.88695034E-21
  -5.51999998       6.18714054E-21
  -5.40000010       6.09090728E-21
  -5.28000021       3.97203850E-21
  -5.15999985      -4.35303141E-22
  -5.03999996      -6.78490455E-21
  -4.92000008      -1.39474170E-20
  -4.80000019      -2.00107656E-20
  -4.67999983      -2.25292866E-20
  -4.55999994      -1.90548357E-20
  -4.44000006      -7.90908420E-21
  -4.32000017       1.09375604E-20
  -4.19999981       3.51079395E-20
  -4.07999992       5.94715589E-20
  -3.96000004       7.65001317E-20
  -3.83999991       7.75263978E-20
  -3.72000003       5.49165920E-20
  -3.59999990       4.89035721E-21
  -3.48000002      -6.95930378E-20
  -3.35999990      -1.56736354E-19
  -3.24000001      -2.35578454E-19
  -3.11999989      -2.78312801E-19
  -3.00000000      -2.55697993E-19
  -2.88000011      -1.45267443E-19
  -2.75999999       5.89217165E-20
  -2.64000010       3.37260328E-19
  -2.51999998       6.39286278E-19
  -2.40000010       8.85286638E-19
  -2.27999997       9.77275430E-19
  -2.16000009       8.20091003E-19
  -2.03999996       3.50691079E-19
  -1.91999996      -4.29492905E-19
  -1.79999995      -1.42732062E-18
  -1.67999995      -2.44592137E-18
  -1.55999994      -3.19775100E-18
  -1.44000006      -3.34941291E-18
  -1.32000005      -2.59851800E-18
  -1.20000005      -7.73765838E-19
  -1.08000004       2.06084895E-18
 -0.959999979       5.52576253E-18
 -0.839999974       8.90216490E-18
 -0.720000029       1.11947729E-17
 -0.600000024       1.12985377E-17
 -0.479999989       8.26450212E-18
 -0.360000014       1.63028882E-18
 -0.239999995      -8.25116797E-18
 -0.119999997      -1.99770156E-17
  -1.11022302E-15  -3.10567939E-17
  0.119999997      -3.81606144E-17
  0.239999995      -3.76982171E-17
  0.360000014      -2.67006325E-17
  0.479999989      -3.88215259E-18
  0.600000024       2.93366222E-17
  0.720000029       6.81383743E-17
  0.839999974       1.04268300E-16
  0.959999979       1.26906513E-16
   1.08000004       1.24571958E-16
   1.20000005       8.79441950E-17
   1.32000005       1.32004890E-17
   1.44000006      -9.48251796E-17
   1.55999994      -2.20569537E-16
   1.67999995      -3.37716298E-16
   1.79999995      -4.12004819E-16
   1.91999996      -4.07200528E-16
   2.03999996      -2.93850102E-16
   2.16000009      -5.95738720E-17
   2.27999997       2.81214859E-16
   2.40000010       6.80905699E-16
   2.51999998       1.05849324E-15
   2.64000010       1.30793428E-15
   2.75999999       1.31606812E-15
   2.88000011       9.89017374E-16
   3.00000000       2.83434244E-16
   3.11999989      -7.63599567E-16
   3.24000001      -2.01410353E-15
   3.35999990      -3.22677413E-15
   3.48000002      -4.07976511E-15
   3.59999990      -4.22208019E-15
   3.72000003      -3.35104064E-15
   3.83999991      -1.30589198E-15
   3.96000004       1.83991989E-15
   4.07999992       5.71115353E-15
   4.19999981       9.61336486E-15
   4.32000017       1.25878871E-14
   4.44000006       1.35514938E-14
   4.55999994       1.15167207E-14
   4.67999983       5.86785971E-15
   4.80000019      -3.35450225E-15
   4.92000008      -1.52259627E-14
   5.03999996      -2.78423084E-14
   5.15999985      -3.84239454E-14
   5.28000021      -4.36656631E-14
   5.40000010      -4.03342385E-14
   5.51999998      -2.60589551E-14
   5.63999987      -1.96608550E-16
   5.76000023       3.54046660E-14
   5.88000011       7.59540000E-14
   6.00000000       1.13788970E-13
   6.11999989       1.39129919E-13
   6.23999977       1.41575933E-13
   6.36000013       1.12253041E-13
   6.48000002       4.63489856E-14
   6.59999990      -5.44033338E-14
   6.71999979      -1.79862364E-13
   6.84000015      -3.10848921E-13
   6.96000004      -4.20292842E-13
   7.07999992      -4.76480780E-13
   7.19999981      -4.48379886E-13
   7.32000017      -3.12556513E-13
   7.44000006      -6.07199770E-14
   7.55999994       2.93512908E-13
   7.67999983       7.10304157E-13
   7.80000019       1.12339836E-12
   7.92000008       1.44535989E-12
   8.03999996       1.57883038E-12
   8.15999985       1.43332828E-12
   8.27999973       9.45845399E-13
   8.39999962       1.02201823E-13
   8.52000046      -1.04490494E-12
   8.64000034      -2.36574367E-12
   8.76000023      -3.65560707E-12
   8.88000011      -4.65222305E-12
   9.00000000      -5.06951859E-12
   9.11999989      -4.64583060E-12
   9.23999977      -3.20131920E-12
   9.35999966      -6.96138785E-13
   9.47999954       2.72150098E-12
   9.60000038       6.68926633E-12
   9.72000027       1.06374692E-11
   9.84000015       1.38362204E-11
   9.96000004       1.54849276E-11
   10.0799999       1.48387587E-11
   10.1999998       1.13585304E-11
   10.3199997       4.86276470E-12
   10.4399996      -4.34496363E-12
   10.5600004      -1.54024658E-11
   10.6800003      -2.68956107E-11
   10.8000002      -3.69637411E-11
   10.9200001      -4.35092483E-11
   11.0400000      -4.44995291E-11
   11.1599998      -3.83308281E-11
   11.2799997      -2.42053530E-11
   11.3999996      -2.46002415E-12
   11.5200005       2.52204733E-11
   11.6400003       5.57687230E-11
   11.7600002       8.49232767E-11
   11.8800001       1.07658507E-10
   12.0000000       1.18836205E-10
   12.1199999       1.14017941E-10
   12.2399998       9.03376887E-11
   12.3599997       4.73036298E-11
   12.4799995      -1.26172527E-11
   12.6000004      -8.37714759E-11
   12.7200003      -1.57557259E-10
   12.8400002      -2.23183208E-10
   12.9600000      -2.68927935E-10
   13.0799999      -2.83796431E-10
   13.1999998      -2.59385680E-10
   13.3199997      -1.91702765E-10
   13.4399996      -8.26389443E-11
   13.5600004       5.91982505E-11
   13.6800003       2.18544904E-10
   13.8000002       3.74589249E-10
   13.9200001       5.03149744E-10
   14.0400000       5.79779780E-10
   14.1599998       5.83488924E-10
   14.2799997       5.00619268E-10
   14.3999996       3.28311017E-10
   14.5200005       7.69559555E-11
   14.6400003      -2.28915178E-10
   14.7600002      -5.51726775E-10
   14.8800001      -8.44122772E-10
   15.0000000      -1.05430853E-09
   15.1199999      -1.13305454E-09
   15.2399998      -1.04164322E-09
   15.3599997      -7.59785124E-10
   15.4799995      -2.92377983E-10
   15.6000004       3.26039251E-10
   15.7200003       1.03015030E-09
   15.8400002       1.72677517E-09
   15.9600000       2.30214248E-09
   16.0799999       2.63331379E-09
   16.2000008       2.60300737E-09
   16.3199997       2.11654072E-09
   16.4400005       1.11918363E-09
   16.5599995      -3.88053173E-10
   16.6800003      -2.33624742E-09
   16.7999992      -4.58191574E-09
   16.9200001      -6.90741730E-09
   17.0400009      -9.02941100E-09
   17.1599998      -1.06156630E-08
   17.2800007      -1.13097807E-08
   17.3999996      -1.07627018E-08
   17.5200005      -8.66912231E-09
   17.6399994      -4.80653206E-09
   17.7600002       9.25832078E-10
   17.8799992       8.47098924E-09
   18.0000000       1.75840658E-08
   18.1200008       2.78108150E-08
   18.2399998       3.84774559E-08
   18.3600006       4.86943676E-08
   18.4799995       5.73758605E-08
   18.6000004       6.32782573E-08
   18.7199993       6.50581029E-08
   18.8400002       6.13520115E-08
   18.9599991       5.08792937E-08
   19.0799999       3.25671472E-08
   19.2000008       5.69742920E-09
   19.3199997      -2.99281666E-08
   19.4400005      -7.38098791E-08
   19.5599995      -1.24566483E-07
   19.6800003      -1.79757734E-07
   19.7999992      -2.35726674E-07
   19.9200001      -2.87477832E-07
   20.0400009      -3.28609957E-07
   20.1599998      -3.51322001E-07
   20.2800007      -3.46510120E-07
   20.3999996      -3.03971888E-07
   20.5200005      -2.12727784E-07
   20.6399994      -6.14644833E-08
   20.7600002       1.60904278E-07
   20.8799992       4.64572196E-07
   21.0000000       8.58094324E-07
   21.1200008       1.34759478E-06
   21.2399998       1.93596907E-06
   21.3600006       2.62213439E-06
   21.4799995       3.40037832E-06
   21.6000004       4.25986491E-06
   21.7199993       5.18434717E-06
   21.8400002       6.15213548E-06
   21.9599991       7.13635109E-06
   22.0799999       8.10549136E-06
   22.2000008       9.02430202E-06
   22.3199997       9.85494535E-06
   22.4400005       1.05584240E-05
   22.5599995       1.10962119E-05
   22.6800003       1.14320119E-05
   22.7999992       1.15335624E-05
   22.9200001       1.13743999E-05
   23.0400009       1.09354733E-05
   23.1599998       1.02065305E-05
   23.2800007       9.18717342E-06
   23.3999996       7.88752277E-06
   23.5200005       6.32842966E-06
   23.6399994       4.54120845E-06
   23.7600002       2.56687554E-06
   23.8799992       4.54919359E-07
   24.0000000      -1.73836122E-06
   24.1200008      -3.95188272E-06
   24.2399998      -6.12207805E-06
   24.3600006      -8.18537137E-06
   24.4799995      -1.00807156E-05
   24.6000004      -1.17520713E-05
   24.7199993      -1.31507077E-05
   24.8400002      -1.42372201E-05
   24.9599991      -1.49831603E-05
   25.0799999      -1.53721958E-05
   25.2000008      -1.54007539E-05
   25.3199997      -1.50780998E-05
   25.4400005      -1.44258420E-05
   25.5599995      -1.34769080E-05
   25.6800003      -1.22740166E-05
   25.7999992      -1.08677277E-05
   25.9200001      -9.31416525E-06
   26.0400009      -7.67252459E-06
   26.1599998      -6.00249632E-06
   26.2800007      -4.36171285E-06
   26.3999996      -2.80337531E-06
   26.5200005      -1.37415998E-06
   26.6399994      -1.12511287E-07
   26.7600002       9.52595826E-07
   26.8799992       1.80237259E-06
   27.0000000       2.42838928E-06
   27.1200008       2.83221539E-06
   27.2399998       3.02456806E-06
   27.3600006       3.02404396E-06
   27.4799995       2.85552892E-06
   27.6000004       2.54840393E-06
   27.7199993       2.13466819E-06
   27.8400002       1.64710752E-06
   27.9599991       1.11762643E-06
   28.0799999       5.75834747E-07
   28.2000008       4.79681859E-08
   28.3199997      -4.43822074E-07
   28.4400005      -8.81801327E-07
   28.5599995      -1.25263307E-06
   28.6800003      -1.54706640E-06
   28.7999992      -1.75941034E-06
   28.9200001      -1.88688830E-06
   29.0400009      -1.92897255E-06
   29.1599998      -1.88678962E-06
   29.2800007      -1.76267304E-06
   29.3999996      -1.55991358E-06
   29.5200005      -1.28272723E-06
   29.6399994      -9.36430922E-07
   29.7600002      -5.27780969E-07
   29.8799992      -6.54068302E-08
   30.0000000       4.39747595E-07
   30.1200008       9.74070190E-07
   30.2399998       1.52110601E-06
   30.3600006       2.06164077E-06
   30.4799995       2.57409397E-06
   30.6000004       3.03524712E-06
   30.7199993       3.42128988E-06
   30.8400002       3.70913222E-06
   30.9599991       3.87790442E-06
   31.0799999       3.91052572E-06
   31.2000008       3.79521725E-06
   31.3199997       3.52682309E-06
   31.4400005       3.10781138E-06
   31.5599995       2.54883980E-06
   31.6800003       1.86881118E-06
   31.7999992       1.09436860E-06
   31.9200001       2.58829289E-07
   32.0400009      -5.99399243E-07
   32.1599998      -1.43883756E-06
   32.2799988      -2.21726486E-06
   32.4000015      -2.89421087E-06
   32.5200005      -3.43344095E-06
   32.6399994      -3.80526149E-06
   32.7599983      -3.98848033E-06
   32.8800011      -3.97187750E-06
   33.0000000      -3.75507329E-06
   33.1199989      -3.34872880E-06
   33.2400017      -2.77404592E-06
   33.3600006      -2.06160166E-06
   33.4799995      -1.24958297E-06
   33.5999985      -3.81544055E-07
   33.7200012       4.96170912E-07
   33.8400002       1.33716185E-06
   33.9599991       2.09768677E-06
   34.0800018       2.73917408E-06
   34.2000008       3.23037307E-06
   34.3199997       3.54900840E-06
   34.4399986       3.68284304E-06
   34.5600014       3.63009713E-06
   34.6800003       3.39921553E-06
   34.7999992       3.00802367E-06
   34.9199982       2.48235256E-06
   35.0400009       1.85424346E-06
   35.1599998       1.15987302E-06
   35.2799988       4.37344852E-07
   35.4000015      -2.75500611E-07
   35.5200005      -9.43120028E-07
   35.6399994      -1.53402539E-06
   35.7599983      -2.02217757E-06
   35.8800011      -2.38795747E-06
   36.0000000      -2.61869604E-06
   36.1199989      -2.70877354E-06
   36.2400017      -2.65933340E-06
   36.3600006      -2.47768048E-06
   36.4799995      -2.17643901E-06
   36.5999985      -1.77256891E-06
   36.7200012      -1.28631245E-06
   36.8400002      -7.40158271E-07
   36.9599991      -1.57866211E-07
   37.0800018       4.36405315E-07
   37.2000008       1.01886042E-06
   37.3199997       1.56672218E-06
   37.4399986       2.05880497E-06
   37.5600014       2.47603498E-06
   37.6800003       2.80194490E-06
   37.7999992       3.02316744E-06
   37.9199982       3.12993325E-06
   38.0400009       3.11656686E-06
   38.1599998       2.98195005E-06
   38.2799988       2.72990428E-06
   38.4000015       2.36944129E-06
   38.5200005       1.91481490E-06
   38.6399994       1.38532016E-06
   38.7599983       8.04792421E-07
   38.8800011       2.00788719E-07
   39.0000000      -3.96547222E-07
   39.1199989      -9.55897917E-07
   39.2400017      -1.44639898E-06
   39.3600006      -1.83938357E-06
   39.4799995      -2.11013662E-06
   39.5999985      -2.23952861E-06
   39.7200012      -2.21541450E-06
   39.8400002      -2.03367676E-06
   39.9599991      -1.69882594E-06
   40.0800018      -1.22409676E-06
   40.2000008      -6.31010721E-07
   40.3199997       5.15806207E-08
   40.4399986       7.88925547E-07
   40.5600014       1.54219003E-06
   40.6800003       2.27055330E-06
   40.7999992       2.93345147E-06
   40.9199982       3.49283005E-06
   41.0400009       3.91526419E-06
   41.1599998       4.17382080E-06
   41.2799988       4.24954760E-06
   41.4000015       4.13251291E-06
   41.5200005       3.82233702E-06
   41.6399994       3.32819855E-06
   41.7599983       2.66832990E-06
   41.8800011       1.86904867E-06
   42.0000000       9.63392722E-07
   42.1199989      -1.05462883E-08
   42.2400017      -1.01148896E-06
   42.3600006      -1.99692408E-06
   42.4799995      -2.92504910E-06
   42.5999985      -3.75659488E-06
   42.7200012      -4.45645992E-06
   42.8400002      -4.99507814E-06
   42.9599991      -5.34948822E-06
   43.0800018      -5.50406912E-06
   43.2000008      -5.45094963E-06
   43.3199997      -5.19009200E-06
   43.4399986      -4.72908232E-06
   43.5600014      -4.08265714E-06
   43.6800003      -3.27201315E-06
   43.7999992      -2.32393677E-06
   43.9199982      -1.26979728E-06
   44.0400009      -1.44445806E-07
   44.1599998       1.01495118E-06
   44.2799988       2.17010484E-06
   44.4000015       3.28280225E-06
   44.5200005       4.31608123E-06
   44.6399994       5.23536346E-06
   44.7599983       6.00951307E-06
   44.8800011       6.61180866E-06
   45.0000000       7.02079251E-06
   45.1199989       7.22097548E-06
   45.2400017       7.20336584E-06
   45.3600006       6.96580310E-06
   45.4799995       6.51306846E-06
   45.5999985       5.85676253E-06
   45.7200012       5.01494424E-06
   45.8400002       4.01153648E-06
   45.9599991       2.87552098E-06
   46.0800018       1.63994628E-06
   46.2000008       3.40802984E-07
   46.3199997      -9.84195026E-07
   46.4399986      -2.29686066E-06
   46.5600014      -3.55976181E-06
   46.6800003      -4.73737737E-06
   46.7999992      -5.79713469E-06
   46.9199982      -6.71030193E-06
   47.0400009      -7.45270972E-06
   47.1599998      -8.00530142E-06
   47.2799988      -8.35450828E-06
   47.4000015      -8.49247590E-06
   47.5200005      -8.41714245E-06
   47.6399994      -8.13219503E-06
   47.7599983      -7.64691868E-06
   47.8800011      -6.97593805E-06
   48.0000000      -6.13885868E-06
   48.1199989      -5.15979491E-06
   48.2400017      -4.06678555E-06
   48.3600006      -2.89107265E-06
   48.4799995      -1.66625591E-06
   48.5999985      -4.27312841E-07
   48.7200012       7.90487604E-07
   48.8400002       1.95275197E-06
   48.9599991       3.02716035E-06
   49.0800018       3.98463771E-06
   49.2000008       4.80043082E-06
   49.3199997       5.45502826E-06
   49.4399986       5.93484401E-06
   49.5600014       6.23263895E-06
   49.6800003       6.34762000E-06
   49.7999992       6.28522139E-06
   49.9199982       6.05657806E-06
   50.0400009       5.67772986E-06
   50.1599998       5.16861201E-06
   50.2799988       4.55191412E-06
   50.4000015       3.85188559E-06
   50.5200005       3.09318534E-06
   50.6399994       2.29984357E-06
   50.7599983       1.49441303E-06
   50.8800011       6.97350345E-07
   51.0000000      -7.33522043E-08
   51.1199989      -8.02287502E-07
   51.2400017      -1.47654191E-06
   51.3600006      -2.08544407E-06
   51.4799995      -2.62022331E-06
   51.5999985      -3.07365667E-06
   51.7200012      -3.43977786E-06
   51.8400002      -3.71371084E-06
   51.9599991      -3.89167053E-06
   52.0800018      -3.97114536E-06
   52.2000008      -3.95124016E-06
   52.3199997      -3.83314045E-06
   52.4399986      -3.62061701E-06
   52.5600014      -3.32048171E-06
   52.6800003      -2.94289953E-06
   52.7999992      -2.50146195E-06
   52.9199982      -2.01295006E-06
   53.0400009      -1.49675259E-06
   53.1599998      -9.73936494E-07
   53.2799988      -4.66020794E-07
   53.4000015       6.45354037E-09
   53.5200005       4.25430670E-07
   53.6399994       7.76767763E-07
   53.7599983       1.05142249E-06
   53.8800011       1.24624967E-06
   54.0000000       1.36428810E-06
   54.1199989       1.41446480E-06
   54.2400017       1.41070927E-06
   54.3600006       1.37053166E-06
   54.4799995       1.31318620E-06
   54.5999985       1.25759777E-06
   54.7200012       1.22026358E-06
   54.8400002       1.21335881E-06
   54.9599991       1.24326232E-06
   55.0800018       1.30968021E-06
   55.2000008       1.40548866E-06
   55.3199997       1.51733309E-06
   55.4399986       1.62694664E-06
   55.5600014       1.71306090E-06
   55.6800003       1.75371724E-06
   55.7999992       1.72873808E-06
   55.9199982       1.62209437E-06
   56.0400009       1.42391673E-06
   56.1599998       1.13193119E-06
   56.2799988       7.52166613E-07
   56.4000015       2.98854275E-07
   56.5200005      -2.06470574E-07
   56.6399994      -7.36575316E-07
   56.7599983      -1.26068232E-06
   56.8800011      -1.74695424E-06
   57.0000000      -2.16507351E-06
   57.1199989      -2.48867468E-06
   57.2400017      -2.69741304E-06
   57.3600006      -2.77849722E-06
   57.4799995      -2.72757256E-06
   57.5999985      -2.54890460E-06
   57.7200012      -2.25488088E-06
   57.8400002      -1.86490638E-06
   57.9599991      -1.40381439E-06
   58.0800018      -8.99949157E-07
   58.2000008      -3.83090310E-07
   58.3199997       1.17612309E-07
   58.4399986       5.75535978E-07
   58.5600014       9.68188260E-07
   58.6800003       1.27842259E-06
   58.7999992       1.49521111E-06
   58.9199982       1.61395974E-06
   59.0400009       1.63638651E-06
   59.1599998       1.57001148E-06
   59.2799988       1.42733336E-06
   59.4000015       1.22477365E-06
   59.5200005       9.81480866E-07
   59.6399994       7.18075057E-07
   59.7599983       4.55409435E-07
   59.8800011       2.13404775E-07
   60.0000000       1.00010631E-08
   60.1199989      -1.39746902E-07
   60.2400017      -2.24415118E-07
   60.3600006      -2.36787912E-07
   60.4799995      -1.74262908E-07
   60.5999985      -3.90753740E-08
   60.7200012       1.61668993E-07
   60.8400002       4.16169343E-07
   60.9599991       7.08331015E-07
   61.0800018       1.01840965E-06
   61.2000008       1.32390642E-06
   61.3199997       1.60070772E-06
   61.4399986       1.82444273E-06
   61.5600014       1.97200688E-06
   61.6800003       2.02317392E-06
   61.7999992       1.96219685E-06
   61.9199982       1.77927404E-06
   62.0400009       1.47175842E-06
   62.1599998       1.04497815E-06
   62.2799988       5.12560064E-07
   62.4000015      -1.03828548E-07
   62.5200005      -7.75360490E-07
   62.6399994      -1.46754610E-06
   62.7599983      -2.14228407E-06
   62.8800011      -2.76034507E-06
   63.0000000      -3.28411920E-06
   63.1199989      -3.68041128E-06
   63.2400017      -3.92305083E-06
   63.3600006      -3.99507326E-06
   63.4799995      -3.89025354E-06
   63.5999985      -3.61381808E-06
   63.7200012      -3.18222760E-06
   63.8400002      -2.62200297E-06
   63.9599991      -1.96766632E-06
   64.0800018      -1.25895735E-06
   64.1999969      -5.37565825E-07
   64.3199997       1.56315650E-07
   64.4400024       7.87289764E-07
   64.5599976       1.32757009E-06
   64.6800003       1.75902687E-06
   64.8000031       2.07424796E-06
   64.9199982       2.27649684E-06
   65.0400009       2.37856898E-06
   65.1600037       2.40066834E-06
   65.2799988       2.36752953E-06
   65.4000015       2.30510591E-06
   65.5199966       2.23718894E-06
   65.6399994       2.18234095E-06
   65.7600021       2.15148430E-06
   65.8799973       2.14643228E-06
   66.0000000       2.15952991E-06
   66.1200027       2.17445768E-06
   66.2399979       2.16812077E-06
   66.3600006       2.11342262E-06
   66.4800034       1.98262296E-06
   66.5999985       1.75091429E-06
   66.7200012       1.39982671E-06
   66.8399963       9.20084574E-07
   66.9599991       3.13601788E-07
   67.0800018      -4.05608091E-07
   67.1999969      -1.21171195E-06
   67.3199997      -2.06850655E-06
   67.4400024      -2.93189396E-06
   67.5599976      -3.75313152E-06
   67.6800003      -4.48253923E-06
   67.8000031      -5.07329651E-06
   67.9199982      -5.48497792E-06
   68.0400009      -5.68651240E-06
   68.1600037      -5.65832852E-06
   68.2799988      -5.39354096E-06
   68.4000015      -4.89815375E-06
   68.5199966      -4.19033131E-06
   68.6399994      -3.29890167E-06
   68.7600021      -2.26129055E-06
   68.8799973      -1.12112446E-06
   69.0000000       7.42662394E-08
   69.1200027       1.27624764E-06
   69.2399979       2.43703948E-06
   69.3600006       3.51154472E-06
   69.4800034       4.45883279E-06
   69.5999985       5.24329971E-06
   69.7200012       5.83557448E-06
   69.8399963       6.21324762E-06
   69.9599991       6.36148661E-06
   70.0800018       6.27358168E-06
   70.1999969       5.95142046E-06
   70.3199997       5.40585188E-06
   70.4400024       4.65685753E-06
   70.5599976       3.73342141E-06
   70.6800003       2.67298606E-06
   70.8000031       1.52040275E-06
   70.9199982       3.26309390E-07
   71.0400009      -8.55057465E-07
   71.1600037      -1.96855603E-06
   71.2799988      -2.96119629E-06
   71.4000015      -3.78536151E-06
   71.5199966      -4.40194253E-06
   71.6399994      -4.78311767E-06
   71.7600021      -4.91450237E-06
   71.8799973      -4.79645087E-06
   72.0000000      -4.44432726E-06
   72.1200027      -3.88768012E-06
   72.2399979      -3.16832461E-06
   72.3600006      -2.33746027E-06
   72.4800034      -1.45202830E-06
   72.5999985      -5.70602651E-07
   72.7200012       2.50855607E-07