  -30.0000000       0.00000000    
  -29.8799992       0.00000000    
  -29.7600002       0.00000000    
  -29.6399994       1.18582080E-40
  -29.5200005       5.13746846E-40
  -29.3999996       9.27302252E-40
  -29.2800007       6.30402140E-41
  -29.1599998      -4.10968189E-39
  -29.0400009      -1.08812255E-38
  -28.9200001      -1.05450946E-38
  -28.7999992       1.49463545E-38
  -28.6800003       6.78506306E-38
  -28.5599995       8.93784875E-38
  -28.4400005      -4.96746068E-38
  -28.3199997      -4.25430761E-37
  -28.2000008      -7.87633500E-37
  -28.0799999      -3.69438798E-37
  -27.9599991       1.73791968E-36
  -27.8400002       5.32412092E-36
  -27.7199993       7.47267226E-36
  -27.6000004       2.46066288E-36
  -27.4799995      -1.46765004E-35
  -27.3600006      -4.07291229E-35
  -27.2399998      -5.72960972E-35
  -27.1200008      -3.26470540E-35
  -27.0000000       5.98384653E-35
  -26.8799992       2.08454201E-34
  -26.7600002       3.33300403E-34
  -26.6399994       2.91305064E-34
  -26.5200005      -5.62151188E-35
  -26.3999996      -7.16902505E-34
  -26.2800007      -1.43793485E-33
  -26.1599998      -1.67839012E-33
  -26.0400009      -7.90667163E-34
  -25.9200001       1.55940199E-33
  -25.7999992       4.86201104E-33
  -25.6800003       7.43120933E-33
  -25.5599995       6.67027363E-33
  -25.4400005       2.07819871E-34
  -25.3199997      -1.22267818E-32
  -25.2000008      -2.69187207E-32
  -25.0799999      -3.55299104E-32
  -24.9599991      -2.70317739E-32
  -24.8400002       7.18918239E-33
  -24.7199993       6.60051539E-32
  -24.6000004       1.31918126E-31
  -24.4799995       1.69538047E-31
  -24.3600006       1.33499835E-31
  -24.2399998      -1.23416195E-32
  -24.1200008      -2.67569598E-31
  -24.0000000      -5.69187389E-31
  -23.8799992      -7.81762706E-31
  -23.7600002      -7.19790597E-31
  -23.6399994      -2.12294280E-31
  -23.5200005       7.95268008E-31
  -23.3999996       2.12911085E-30
  -23.2800007       3.31637538E-30
  -23.1599998       3.62090177E-30
  -23.0400009       2.24155902E-30
  -22.9200001      -1.31579684E-30
  -22.7999992      -6.76426319E-30
  -22.6800003      -1.26347745E-29
  -22.5599995      -1.62071233E-29
  -22.4400005      -1.40384058E-29
  -22.3199997      -3.22460331E-30
  -22.2000008       1.67575751E-29
  -22.0799999       4.21825963E-29
  -21.9599991       6.41111805E-29
  -21.8400002       6.93960647E-29
  -21.7199993       4.44079001E-29
  -21.6000004      -1.86557461E-29
  -21.4799995      -1.14360324E-28
  -21.3600006      -2.18406330E-28
  -21.2399998      -2.87480891E-28
  -21.1200008      -2.67815918E-28
  -21.0000000      -1.13475479E-28
  -20.8799992       1.88422514E-28
  -20.7600002       5.92889396E-28
  -20.6399994       9.83658512E-28
  -20.5200005       1.18302625E-27
  -20.3999996       9.93111554E-28
  -20.2800007       2.67908026E-28
  -20.1599998      -9.97330014E-28
  -20.0400009      -2.58661270E-27
  -19.9200001      -4.03076800E-27
  -19.7999992      -4.65945855E-27
  -19.6800003      -3.76108888E-27
  -19.5599995      -8.43915924E-28
  -19.4400005       4.05112893E-27
  -19.3199997       1.00809868E-26
  -19.2000008       1.55017993E-26
  -19.0799999       1.78682881E-26
  -18.9599991       1.46091817E-26
  -18.8400002       3.95221047E-27
  -18.7199993      -1.39757125E-26
  -18.6000004      -3.62037883E-26
  -18.4799995      -5.65680384E-26
  -18.3600006      -6.63941083E-26
  -18.2399998      -5.64782870E-26
  -18.1200008      -2.02765171E-26
  -18.0000000       4.22882077E-26
  -17.8799992       1.21514864E-25
  -17.7600002       1.96591459E-25
  -17.6399994       2.37717662E-25
  -17.5200005       2.12605557E-25
  -17.3999996       9.71165305E-26
  -17.2800007      -1.11846758E-25
  -17.1599998      -3.84815495E-25
  -17.0400009      -6.54468688E-25
  -16.9200001      -8.21534143E-25
  -16.7999992      -7.75137141E-25
  -16.6800003      -4.27193473E-25
  -16.5599995       2.44817583E-25
  -16.4400005       1.15806349E-24
  -16.3199997       2.10323570E-24
  -16.2000008       2.75852017E-24
  -16.0799999       2.75033298E-24
  -15.9600000       1.76137395E-24
  -15.8400002      -3.29955914E-25
  -15.7200003      -3.31329666E-24
  -15.6000004      -6.56278788E-24
  -15.4799995      -9.06041854E-24
  -15.3599997      -9.56817044E-24
  -15.2399998      -6.95825806E-24
  -15.1199999      -6.59802916E-25
  -15.0000000       8.87960294E-24
  -14.8800001       1.98711759E-23
  -14.7600002       2.91774847E-23
  -14.6400003       3.27687771E-23
  -14.5200005       2.66995559E-23
  -14.3999996       8.50860955E-24
  -14.2799997      -2.12437781E-23
  -14.1599998      -5.77651476E-23
  -14.0400000      -9.17093275E-23
  -13.9200001      -1.10259013E-22
  -13.8000002      -9.98838134E-23
  -13.6800003      -5.06007444E-23
  -13.5600004       3.90198750E-23
  -13.4399996       1.57450641E-22
  -13.3199997       2.78153668E-22
  -13.1999998       3.61621740E-22
  -13.0799999       3.62670357E-22
  -12.9600000       2.42907009E-22
  -12.8400002      -1.34433700E-23
  -12.7200003      -3.84091250E-22
  -12.6000004      -7.98868559E-22
  -12.4799995      -1.14126489E-21
  -12.3599997      -1.26582191E-21
  -12.2399998      -1.03269299E-21
  -12.1199999      -3.55664969E-22
  -12.0000000       7.46027449E-22
  -11.8800001       2.10717354E-21
  -11.7600002       3.40529336E-21
  -11.6400003       4.19486351E-21
  -11.5200005       3.99578319E-21
  -11.3999996       2.43122539E-21
  -11.2799997      -6.07694619E-22
  -11.1599998      -4.81107106E-21
  -11.0400000      -9.36658290E-21
  -10.9200001      -1.29978549E-20
  -10.8000002      -1.41642838E-20
  -10.6800003      -1.14279509E-20
  -10.5600004      -3.94360902E-21
  -10.4399996       8.02851647E-21
  -10.3199997       2.27357571E-20
  -10.1999998       3.68426923E-20
  -10.0799999       4.57872193E-20
  -9.96000004       4.46572582E-20
  -9.84000015       2.95339506E-20
  -9.72000027      -9.15741546E-22
  -9.60000038      -4.39766792E-20
  -9.47999954      -9.20446002E-20
  -9.35999966      -1.32906263E-19
  -9.23999977      -1.51501955E-19
  -9.11999989      -1.33232249E-19
  -9.00000000      -6.84370529E-20
  -8.88000011       4.28149202E-20
  -8.76000023       1.86911075E-19
  -8.64000034       3.35344268E-19
  -8.52000046       4.47162259E-19
  -8.39999962       4.75950625E-19
  -8.27999973       3.81041292E-19
  -8.15999985       1.41303076E-19
  -8.03999996      -2.31482462E-19
  -7.92000008      -6.83634377E-19
  -7.80000019      -1.11913990E-18
  -7.67999983      -1.41100169E-18
  -7.55999994      -1.42539494E-18
  -7.44000006      -1.05639164E-18
  -7.32000017      -2.65235282E-19
  -7.19999981       8.85241867E-19
  -7.07999992       2.21235597E-18
  -6.96000004       3.42209582E-18
  -6.84000015       4.15117034E-18
  -6.71999979       4.04219798E-18
  -6.59999990       2.84224697E-18
  -6.48000002       5.05172642E-19
  -6.36000013      -2.72925720E-18
  -6.23999977      -6.30875474E-18
  -6.11999989      -9.41843396E-18
  -6.00000000      -1.11175283E-17
  -5.88000011      -1.05520544E-17
  -5.76000023      -7.20782935E-18
  -5.63999987      -1.14577936E-18
  -5.51999998       6.85144478E-18
  -5.40000010       1.52891035E-17
  -5.28000021       2.21696713E-17
  -5.15999985       2.54007413E-17
  -5.03999996       2.33421667E-17
  -4.92000008       1.53738167E-17
  -4.80000019       2.32249693E-18
  -4.67999983      -1.34212594E-17
  -4.55999994      -2.82247326E-17
  -4.44000006      -3.80068713E-17
  -4.32000017      -3.94017526E-17
  -4.19999981      -3.10370871E-17
  -4.07999992      -1.45477512E-17
  -3.96000004       5.10606970E-18
  -3.83999991       2.03783240E-17
  -3.72000003       2.30861493E-17
  -3.59999990       7.37950158E-18
  -3.48000002      -2.68742527E-17
  -3.35999990      -7.12878678E-17
  -3.24000001      -1.07965466E-16
  -3.11999989      -1.11499804E-16
  -3.00000000      -5.46706232E-17
  -2.88000011       8.23202536E-17
  -2.75999999       3.00455795E-16
  -2.64000010       5.71049814E-16
  -2.51999998       8.29200627E-16
  -2.40000010       9.75719592E-16
  -2.27999997       8.91015874E-16
  -2.16000009       4.62395656E-16
  -2.03999996      -3.77104918E-16
  -1.91999996      -1.60448793E-15
  -1.79999995      -3.06762257E-15
  -1.67999995      -4.46482036E-15
  -1.55999994      -5.35760198E-15
  -1.44000006      -5.22820160E-15
  -1.32000005      -3.58601859E-15
  -1.20000005      -1.15751459E-16
  -1.08000004       5.15443901E-15
 -0.959999979       1.17009106E-14
 -0.839999974       1.84158431E-14
 -0.720000029       2.36322379E-14
 -0.600000024       2.53045147E-14
 -0.479999989       2.13640276E-14
 -0.360000014       1.02324951E-14
 -0.239999995      -8.57017263E-15
 -0.119999997      -3.38357916E-14
  -1.11022302E-15  -6.22479973E-14
  0.119999997      -8.83030831E-14
  0.239999995      -1.04726442E-13
  0.360000014      -1.03480585E-13
  0.479999989      -7.73569305E-14
  0.600000024      -2.20033478E-14
  0.720000029       6.19179390E-14
  0.839999974       1.66891701E-13
  0.959999979       2.77573076E-13
   1.08000004       3.71218166E-13
   1.20000005       4.19947741E-13
   1.32000005       3.95011064E-13
   1.44000006       2.72832402E-13
   1.55999994       4.21493183E-14
   1.67999995      -2.88929416E-13
   1.79999995      -6.87509511E-13
   1.91999996      -1.09388876E-12
   2.03999996      -1.42454397E-12
   2.16000009      -1.58122766E-12
   2.27999997      -1.46634972E-12
   2.40000010      -1.00356626E-12
   2.51999998      -1.61046849E-13
   2.64000010       1.02647730E-12
   2.75999999       2.44180652E-12
   2.88000011       3.88074729E-12
   3.00000000       5.06358800E-12
   3.11999989       5.66542689E-12
   3.24000001       5.36534922E-12
   3.35999990       3.91071680E-12
   3.48000002       1.18872880E-12
   3.59999990      -2.70638807E-12
   3.72000003      -7.42485587E-12
   3.83999991      -1.23464407E-11
   3.96000004      -1.66121544E-11
   4.07999992      -1.92104700E-11
   4.19999981      -1.91180769E-11
   4.32000017      -1.54849918E-11
   4.44000006      -7.84283229E-12
   4.55999994       3.69521080E-12
   4.67999983       1.82812428E-11
   4.80000019       3.42671030E-11
   4.92000008       4.92624067E-11
   5.03999996       6.03398095E-11
   5.15999985       6.43915338E-11
   5.28000021       5.86156262E-11
   5.40000010       4.10823493E-11
   5.51999998       1.13046881E-11
   5.63999987      -2.92829649E-11
   5.76000023      -7.70423308E-11
   5.88000011      -1.26141916E-10
   6.00000000      -1.68932479E-10
   6.11999989      -1.96715713E-10
   6.23999977      -2.00876996E-10
   6.36000013      -1.74286571E-10
   6.48000002      -1.12808235E-10
   6.59999990      -1.67010485E-11
   6.71999979       1.08332288E-10
   6.84000015       2.50695104E-10
   6.96000004       3.93249239E-10
   7.07999992       5.14594811E-10
   7.19999981       5.91285243E-10
   7.32000017       6.00844374E-10
   7.44000006       5.25304467E-10
   7.55999994       3.54847235E-10
   7.67999983       9.10343259E-11
   7.80000019      -2.50929139E-10
   7.92000008      -6.41416364E-10
   8.03999996      -1.03748921E-09
   8.15999985      -1.38610090E-09
   8.27999973      -1.62933533E-09
   8.39999962      -1.71132764E-09
   8.52000046      -1.58621138E-09
   8.64000034      -1.22618615E-09
   8.76000023      -6.28625374E-10
   8.88000011       1.78897369E-10
   9.00000000       1.13668397E-09
   9.11999989       2.15485052E-09
   9.23999977       3.11948756E-09
   9.35999966       3.90289356E-09
   9.47999954       4.37716707E-09
   9.60000038       4.42990400E-09
   9.72000027       3.98029210E-09
   9.84000015       2.99360692E-09
   9.96000004       1.49206147E-09
   10.0799999      -4.39849351E-10
   10.1999998      -2.65688116E-09
   10.3199997      -4.96212582E-09
   10.4399996      -7.12342363E-09
   10.5600004      -8.89591778E-09
   10.6800003      -1.00486250E-08
   10.8000002      -1.03921334E-08
   10.9200001      -9.80403936E-09
   11.0400000      -8.24866575E-09
   11.1599998      -5.78788839E-09
   11.2799997      -2.58076982E-09
   11.3999996       1.12918197E-09
   11.5200005       5.03873210E-09
   11.6400003       8.81963036E-09
   11.7600002       1.21596839E-08
   11.8800001       1.48052273E-08
   12.0000000       1.65991256E-08
   12.1199999       1.75082189E-08
   12.2399998       1.76345676E-08
   12.3599997       1.72062222E-08
   12.4799995       1.65452452E-08
   12.6000004       1.60134999E-08
   12.7200003       1.59397455E-08
   12.8400002       1.65348517E-08
   12.9600000       1.78048865E-08
   13.0799999       1.94741592E-08
   13.1999998       2.09316777E-08
   13.3199997       2.12145519E-08
   13.4399996       1.90404474E-08
   13.5600004       1.28982034E-08
   13.6800003       1.20131360E-09
   13.8000002      -1.74968235E-08
   13.9200001      -4.42335448E-08
   14.0400000      -7.93281316E-08
   14.1599998      -1.22054686E-07
   14.2799997      -1.70323887E-07
   14.3999996      -2.20404630E-07
   14.5200005      -2.66718644E-07
   14.6400003      -3.01740329E-07
   14.7600002      -3.16030537E-07
   14.8800001      -2.98427238E-07
   15.0000000      -2.36405313E-07
   15.1199999      -1.16607943E-07
   15.2399998       7.44615676E-08
   15.3599997       3.49611838E-07
   15.4799995       7.20037576E-07
   15.6000004       1.19434389E-06
   15.7200003       1.77758045E-06
   15.8400002       2.47034836E-06
   15.9600000       3.26804616E-06
   16.0799999       4.16031799E-06
   16.2000008       5.13075656E-06
   16.3199997       6.15691033E-06
   16.4400005       7.21061724E-06
   16.5599995       8.25867664E-06
   16.6800003       9.26384928E-06
   16.7999992       1.01861515E-05
   16.9200001       1.09843968E-05
   17.0400009       1.16179208E-05
   17.1599998       1.20483928E-05
   17.2800007       1.22416459E-05
   17.3999996       1.21694111E-05
   17.5200005       1.18108837E-05
   17.6399994       1.11540185E-05
   17.7600002       1.01964988E-05
   17.8799992       8.94630921E-06
   18.0000000       7.42189104E-06
   18.1200008       5.65185428E-06
   18.2399998       3.67426105E-06
   18.3600006       1.53549854E-06
   18.4799995      -7.11200585E-07
   18.6000004      -3.00753686E-06
   18.7199993      -5.29214458E-06
   18.8400002      -7.50273330E-06
   18.9599991      -9.57827979E-06
   19.0799999      -1.14611958E-05
   19.2000008      -1.30993685E-05
   19.3199997      -1.44480236E-05
   19.4400005      -1.54713234E-05
   19.5599995      -1.61436546E-05
   19.6800003      -1.64505345E-05
   19.7999992      -1.63891582E-05
   19.9200001      -1.59684951E-05
   20.0400009      -1.52089851E-05
   20.1599998      -1.41418177E-05
   20.2800007      -1.28078073E-05
   20.3999996      -1.12559210E-05
   20.5200005      -9.54148982E-06
   20.6399994      -7.72418116E-06
   20.7600002      -5.86578244E-06
   20.8799992      -4.02790238E-06
   21.0000000      -2.26966131E-06
   21.1200008      -6.45472880E-07
   21.2399998       7.96989809E-07
   21.3600006       2.01855869E-06
   21.4799995       2.98998225E-06
   21.6000004       3.69291797E-06
   21.7199993       4.12045620E-06
   21.8400002       4.27714849E-06
   21.9599991       4.17853198E-06
   22.0799999       3.85016983E-06
   22.2000008       3.32625314E-06
   22.3199997       2.64782602E-06
   22.4400005       1.86072259E-06
   22.5599995       1.01331921E-06
   22.6800003       1.54211051E-07
   22.7999992      -6.70067948E-07
   22.9200001      -1.41716669E-06
   23.0400009      -2.05077390E-06
   23.1599998      -2.54211977E-06
   23.2800007      -2.87104763E-06
   23.3999996      -3.02661374E-06
   23.5200005      -3.00719216E-06
   23.6399994      -2.82009728E-06
   23.7600002      -2.48075639E-06
   23.8799992      -2.01150215E-06
   24.0000000      -1.44005833E-06
   24.1200008      -7.97828875E-07
   24.2399998      -1.18086255E-07
   24.3600006       5.65825019E-07
   24.4799995       1.22217159E-06
   24.6000004       1.82231236E-06
   24.7199993       2.34190475E-06
   24.8400002       2.76179117E-06
   24.9599991       3.06853894E-06
   25.0799999       3.25463748E-06
   25.2000008       3.31836941E-06
   25.3199997       3.26340046E-06
   25.4400005       3.09814209E-06
   25.5599995       2.83494683E-06
   25.6800003       2.48920242E-06
   25.7999992       2.07838934E-06
   25.9200001       1.62115577E-06
   26.0400009       1.13645831E-06
   26.1599998       6.42803172E-07
   26.2800007       1.57611609E-07
   26.3999996      -3.03280558E-07
   26.5200005      -7.25987320E-07
   26.6399994      -1.09880966E-06
   26.7600002      -1.41235989E-06
   26.8799992      -1.65959284E-06
   27.0000000      -1.83576526E-06
   27.1200008      -1.93834603E-06
   27.2399998      -1.96689848E-06
   27.3600006      -1.92295056E-06
   27.4799995      -1.80986831E-06
   27.6000004      -1.63274035E-06
   27.7199993      -1.39827046E-06
   27.8400002      -1.11467875E-06
   27.9599991      -7.91596165E-07
   28.0799999      -4.39938390E-07
   28.2000008      -7.17418871E-08
   28.3199997       3.00057565E-07
   28.4400005       6.61917568E-07
   28.5599995       1.00006423E-06
   28.6800003       1.30095100E-06
   28.7999992       1.55179464E-06
   28.9200001       1.74116963E-06
   29.0400009       1.85963324E-06
   29.1599998       1.90034154E-06
   29.2800007       1.85961301E-06
   29.3999996       1.73739159E-06
   29.5200005       1.53755718E-06
   29.6399994       1.26804525E-06
   29.7600002       9.40738460E-07
   29.8799992       5.71109013E-07
   30.0000000       1.77609650E-07
   30.1200008      -2.19175675E-07
   30.2399998      -5.97585029E-07
   30.3600006      -9.36085598E-07
   30.4799995      -1.21456253E-06
   30.6000004      -1.41560906E-06
   30.7199993      -1.52572488E-06
   30.8400002      -1.53633050E-06
   30.9599991      -1.44451064E-06
   31.0799999      -1.25341433E-06
   31.2000008      -9.72258249E-07
   31.3199997      -6.15912313E-07
   31.4400005      -2.04075462E-07
   31.5599995       2.39914357E-07
   31.6800003       6.90558807E-07
   31.7999992       1.12186194E-06
   31.9200001       1.50905169E-06
   32.0400009       1.83022780E-06
   32.1599998       2.06780351E-06
   32.2799988       2.20962784E-06
   32.4000015       2.24970086E-06
   32.5200005       2.18842797E-06
   32.6399994       2.03240756E-06
   32.7599983       1.79377741E-06
   32.8800011       1.48919833E-06
   33.0000000       1.13856652E-06
   33.1199989       7.63580942E-07
   33.2400017       3.86287525E-07
   33.3600006       2.77195653E-08
   33.4799995      -2.93265970E-07
   33.5999985      -5.60885610E-07
   33.7200012      -7.63020751E-07
   33.8400002      -8.91498814E-07
   33.9599991      -9.42089514E-07
   34.0800018      -9.14266593E-07
   34.2000008      -8.10800429E-07
   34.3199997      -6.37254004E-07
   34.4399986      -4.01450137E-07
   34.5600014      -1.12969133E-07
   34.6800003       2.17281482E-07
   34.7999992       5.77403853E-07
   34.9199982       9.54749453E-07
   35.0400009       1.33607909E-06
   35.1599998       1.70767203E-06
   35.2799988       2.05542619E-06
   35.4000015       2.36499000E-06
   35.5200005       2.62197159E-06
   35.6399994       2.81225016E-06
   35.7599983       2.92241862E-06
   35.8800011       2.94035408E-06
   36.0000000       2.85590340E-06
   36.1199989       2.66165080E-06
   36.2400017       2.35371067E-06
   36.3600006       1.93248843E-06
   36.4799995       1.40332679E-06
   36.5999985       7.76969159E-07
   36.7200012       6.97635514E-08
   36.8400002      -6.96445795E-07
   36.9599991      -1.49477933E-06
   37.0800018      -2.29414627E-06
   37.2000008      -3.06041920E-06
   37.3199997      -3.75791160E-06
   37.4399986      -4.35108996E-06
   37.5600014      -4.80642575E-06
   37.6800003      -5.09427900E-06
   37.7999992      -5.19069818E-06
   37.9199982      -5.07901723E-06
   38.0400009      -4.75114712E-06
   38.1599998      -4.20847118E-06
   38.2799988      -3.46227012E-06
   38.4000015      -2.53364419E-06
   38.5200005      -1.45291392E-06
   38.6399994      -2.58519918E-07
   38.7599983       1.00453678E-06
   38.8800011       2.28663862E-06
   39.0000000       3.53578594E-06
   39.1199989       4.70001169E-06
   39.2400017       5.72984527E-06
   39.3600006       6.58069030E-06
   39.4799995       7.21498827E-06
   39.5999985       7.60403373E-06
   39.7200012       7.72933709E-06
   39.8400002       7.58344868E-06
   39.9599991       7.17019702E-06
   40.0800018       6.50433367E-06
   40.2000008       5.61060551E-06
   40.3199997       4.52234190E-06
   40.4399986       3.27964494E-06
   40.5600014       1.92732546E-06
   40.6800003       5.12717975E-07
   40.7999992      -9.16471663E-07
   40.9199982      -2.31416288E-06
   41.0400009      -3.63762501E-06
   41.1599998      -4.84885504E-06
   41.2799988      -5.91556409E-06
   41.4000015      -6.81177244E-06
   41.5200005      -7.51802281E-06
   41.6399994      -8.02129489E-06
   41.7599983      -8.31466514E-06
   41.8800011      -8.39680797E-06
   42.0000000      -8.27142685E-06
   42.1199989      -7.94665630E-06
   42.2400017      -7.43453302E-06
   42.3600006      -6.75053889E-06
   42.4799995      -5.91324124E-06
   42.5999985      -4.94403093E-06
   42.7200012      -3.86692818E-06
   42.8400002      -2.70842020E-06
   42.9599991      -1.49727930E-06
   43.0800018      -2.64313940E-07
   43.2000008       9.58005444E-07
   43.3199997       2.13608951E-06
   43.4399986       3.23597783E-06
   43.5600014       4.22430367E-06
   43.6800003       5.06947163E-06
   43.7999992       5.74300429E-06
   43.9199982       6.22099469E-06
   44.0400009       6.48557261E-06
   44.1599998       6.52625977E-06
   44.2799988       6.34109756E-06
   44.4000015       5.93741379E-06
   44.5200005       5.33212051E-06
   44.6399994       4.55145255E-06
   44.7599983       3.63011554E-06
   44.8800011       2.60984143E-06
   45.0000000       1.53741030E-06
   45.1199989       4.62248011E-07
   45.2400017      -5.66253448E-07
   45.3600006      -1.50151652E-06
   45.4799995      -2.30246451E-06
   45.5999985      -2.93592393E-06
   45.7200012      -3.37857341E-06
   45.8400002      -3.61829166E-06
   45.9599991      -3.65481537E-06
   46.0800018      -3.49965330E-06
   46.2000008      -3.17525814E-06
   46.3199997      -2.71351337E-06
   46.4399986      -2.15362729E-06
   46.5600014      -1.53956910E-06
   46.6800003      -9.17205682E-07
   46.7999992      -3.31320251E-07
   46.9199982       1.77305594E-07
   47.0400009       5.74559635E-07
   47.1599998       8.35246965E-07
   47.2799988       9.44765191E-07
   47.4000015       9.00088764E-07
   47.5200005       7.09981350E-07
   47.6399994       3.94402633E-07
   47.7599983      -1.68677285E-08
   47.8800011      -4.86316594E-07
   48.0000000      -9.71363761E-07
   48.1199989      -1.42743340E-06
   48.2400017      -1.81122016E-06
   48.3600006      -2.08392089E-06
   48.4799995      -2.21419464E-06
   48.5999985      -2.18063701E-06
   48.7200012      -1.97357713E-06
   48.8400002      -1.59606202E-06
   48.9599991      -1.06394407E-06
   49.0800018      -4.05054834E-07
   49.2000008       3.42486231E-07
   49.3199997       1.13271631E-06
   49.4399986       1.91486174E-06
   49.5600014       2.63674610E-06
   49.6800003       3.24833945E-06
   49.7999992       3.70519820E-06
   49.9199982       3.97155827E-06
   50.0400009       4.02286332E-06
   50.1599998       3.84756049E-06
   50.2799988       3.44803948E-06
   50.4000015       2.84066778E-06
   50.5200005       2.05491733E-06
   50.6399994       1.13166266E-06
   50.7599983       1.20765606E-07
   50.8800011      -9.21883270E-07
   51.0000000      -1.93767596E-06
   51.1199989      -2.86874183E-06
   51.2400017      -3.66133918E-06
   51.3600006      -4.26898941E-06
   51.4799995      -4.65518133E-06
   51.5999985      -4.79551090E-06
   51.7200012      -4.67913878E-06
   51.8400002      -4.30950922E-06
   51.9599991      -3.70428916E-06
   52.0800018      -2.89452851E-06
   52.2000008      -1.92308403E-06
   52.3199997      -8.42364898E-07
   52.4399986       2.88495414E-07
   52.5600014       1.40691452E-06
   52.6800003       2.45042497E-06
   52.7999992       3.36034213E-06
   52.9199982       4.08532651E-06
   53.0400009       4.58462591E-06
   53.1599998       4.83077383E-06
   53.2799988       4.81153893E-06
   53.4000015       4.53095754E-06
   53.5200005       4.00932367E-06
   53.6399994       3.28208807E-06
   53.7599983       2.39768883E-06
   53.8800011       1.41442263E-06
   54.0000000       3.96550291E-07
   54.1199989      -5.90100569E-07
   54.2400017      -1.48272034E-06
   54.3600006      -2.22594417E-06
   54.4799995      -2.77577328E-06
   54.5999985      -3.10267660E-06
   54.7200012      -3.19361288E-06
   54.8400002      -3.05280173E-06
   54.9599991      -2.70116630E-06
   55.0800018      -2.17449178E-06
   55.2000008      -1.52043913E-06
   55.3199997      -7.94667812E-07
   55.4399986      -5.63870479E-08
   55.5600014       6.36287552E-07
   55.6800003       1.23078598E-06
   55.7999992       1.68397537E-06
   55.9199982       1.96518022E-06
   56.0400009       2.05810511E-06
   56.1599998       1.96153519E-06
   56.2799988       1.68880422E-06
   56.4000015       1.26613031E-06
   56.5200005       7.30010754E-07
   56.6399994       1.23944687E-07
   56.7599983      -5.05208561E-07
   56.8800011      -1.11091435E-06
   57.0000000      -1.65038784E-06
   57.1199989      -2.08750180E-06
   57.2400017      -2.39498490E-06
   57.3600006      -2.55579198E-06
   57.4799995      -2.56360772E-06
   57.5999985      -2.42252304E-06
   57.7200012      -2.14598435E-06
   57.8400002      -1.75516300E-06
   57.9599991      -1.27692886E-06
   58.0800018      -7.41615395E-07
   58.2000008      -1.80760438E-07
   58.3199997       3.75011467E-07
   58.4399986       8.97834127E-07
   58.5600014       1.36407346E-06
   58.6800003       1.75537116E-06
   58.7999992       2.05923425E-06
   58.9199982       2.26917791E-06
   59.0400009       2.38445682E-06
   59.1599998       2.40944314E-06
   59.2799988       2.35272228E-06
   59.4000015       2.22599374E-06
   59.5200005       2.04286835E-06
   59.6399994       1.81765324E-06
   59.7599983       1.56421845E-06
   59.8800011       1.29501984E-06
   60.0000000       1.02034755E-06
   60.1199989       7.47842137E-07
   60.2400017       4.82305381E-07
   60.3600006       2.25801188E-07
   60.4799995      -2.19764065E-08
   60.5999985      -2.63116391E-07
   60.7200012      -5.00750843E-07
   60.8400002      -7.38240942E-07
   60.9599991      -9.78373691E-07
   61.0800018      -1.22265328E-06
   61.2000008      -1.47076003E-06
   61.3199997      -1.72023340E-06
   61.4399986      -1.96641008E-06
   61.5600014      -2.20261541E-06
   61.6800003      -2.42058559E-06
   61.7999992      -2.61106129E-06
   61.9199982      -2.76447872E-06
   62.0400009      -2.87167563E-06
   62.1599998      -2.92452978E-06
   62.2799988      -2.91646575E-06
   62.4000015      -2.84278462E-06
   62.5200005      -2.70081273E-06
   62.6399994      -2.48988226E-06
   62.7599983      -2.21119649E-06
   62.8800011      -1.86763930E-06
   63.0000000      -1.46359719E-06
   63.1199989      -1.00484692E-06
   63.2400017      -4.98548445E-07
   63.3600006       4.66572381E-08
   63.4799995       6.20470132E-07
   63.5999985       1.21073322E-06
   63.7200012       1.80329073E-06
   63.8400002       2.38198982E-06
   63.9599991       2.92890059E-06
   64.0800018       3.42481076E-06
   64.1999969       3.85001022E-06
   64.3199997       4.18534319E-06
   64.4400024       4.41345219E-06
   64.5599976       4.52010772E-06
   64.6800003       4.49548679E-06
   64.8000031       4.33524883E-06
   64.9199982       4.04127468E-06
   65.0400009       3.62195919E-06
   65.1600037       3.09199208E-06
   65.2799988       2.47162279E-06
   65.4000015       1.78545849E-06
   65.5199966       1.06090022E-06
   65.6399994       3.26367541E-07
   65.7600021      -3.90519261E-07
   65.8799973      -1.06462437E-06
   66.0000000      -1.67469091E-06
   66.1200027      -2.20432821E-06
   66.2399979      -2.64251821E-06
   66.3600006      -2.98363125E-06
   66.4800034      -3.22698884E-06
   66.5999985      -3.37606593E-06
   66.7200012      -3.43745228E-06
   66.8399963      -3.41971440E-06
   66.9599991      -3.33229809E-06
   67.0800018      -3.18459092E-06
   67.1999969      -2.98523150E-06
   67.3199997      -2.74171430E-06
   67.4400024      -2.46029572E-06
   67.5599976      -2.14615716E-06
   67.6800003      -1.80375866E-06
   67.8000031      -1.43728971E-06
   67.9199982      -1.05112360E-06
   68.0400009      -6.50185314E-07
   68.1600037      -2.40173222E-07
   68.2799988       1.72397051E-07
   68.4000015       5.80323331E-07
   68.5199966       9.75984904E-07
   68.6399994       1.35168762E-06
   68.7600021       1.70001283E-06
   68.8799973       2.01410285E-06
   69.0000000       2.28782756E-06
   69.1200027       2.51580650E-06
   69.2399979       2.69329621E-06
   69.3600006       2.81598000E-06
   69.4800034       2.87973330E-06
   69.5999985       2.88044362E-06
   69.7200012       2.81397865E-06
   69.8399963       2.67636301E-06
   69.9599991       2.46421428E-06
   70.0800018       2.17542106E-06
   70.1999969       1.81001963E-06
   70.3199997       1.37115774E-06
   70.4400024       8.66013579E-07
   70.5599976       3.06500397E-07
   70.6800003      -2.90395519E-07
   70.8000031      -9.02779561E-07
   70.9199982      -1.50459368E-06
   71.0400009      -2.06695358E-06
   71.1600037      -2.56001044E-06
   71.2799988      -2.95518680E-06
   71.4000015      -3.22758319E-06
   71.5199966      -3.35829668E-06
   71.6399994      -3.33639741E-06
   71.7600021      -3.16031628E-06
   71.8799973      -2.83846339E-06
   72.0000000      -2.38896928E-06
   72.1200027      -1.83853865E-06
   72.2399979      -1.22050642E-06
   72.3600006      -5.72273905E-07
   72.4800034       6.76233824E-08
   72.5999985       6.62526475E-07
   72.7200012       1.18044113E-06