  -30.0000000       0.00000000    
  -29.8799992       0.00000000    
  -29.7600002       0.00000000    
  -29.6399994       0.00000000    
  -29.5200005       0.00000000    
  -29.3999996       0.00000000    
  -29.2800007       0.00000000    
  -29.1599998       0.00000000    
  -29.0400009       0.00000000    
  -28.9200001      -3.01279170E-43
  -28.7999992      -1.42144129E-38
  -28.6800003      -3.13124424E-36
  -28.5599995      -6.67365451E-35
  -28.4400005      -7.31365585E-34
  -28.3199997      -5.25478374E-33
  -28.2000008      -2.70703330E-32
  -28.0799999      -1.02934102E-31
  -27.9599991      -2.81296668E-31
  -27.8400002      -4.60759978E-31
  -27.7199993       1.68089392E-31
  -27.6000004       4.15388595E-30
  -27.4799995       1.62018059E-29
  -27.3600006       3.94266869E-29
  -27.2399998       6.26455418E-29
  -27.1200008       4.18587422E-29
  -27.0000000      -9.41094834E-29
  -26.8799992      -3.46698614E-28
  -26.7600002      -4.06223114E-28
  -26.6399994       5.97792573E-28
  -26.5200005       3.76591565E-27
  -26.3999996       8.44314360E-27
  -26.2800007       7.87646106E-27
  -26.1599998      -1.54750782E-26
  -26.0400009      -8.71234809E-26
  -25.9200001      -2.16101666E-25
  -25.7999992      -3.37201380E-25
  -25.6800003      -2.33820714E-25
  -25.5599995       4.87135118E-25
  -25.4400005       2.22671866E-24
  -25.3199997       4.87769540E-24
  -25.2000008       6.96758081E-24
  -25.0799999       4.89418930E-24
  -24.9599991      -6.70021613E-24
  -24.8400002      -3.19796449E-23
  -24.7199993      -6.75401944E-23
  -24.6000004      -9.40884057E-23
  -24.4799995      -7.17089898E-23
  -24.3600006       5.17002272E-23
  -24.2399998       3.09136110E-22
  -24.1200008       6.59381744E-22
  -24.0000000       9.27212921E-22
  -23.8799992       7.84721720E-22
  -23.7600002      -1.62873940E-22
  -23.6399994      -2.13956809E-21
  -23.5200005      -4.83284958E-21
  -23.3999996      -7.04848516E-21
  -23.2800007      -6.66737341E-21
  -23.1599998      -1.23373746E-21
  -23.0400009       1.06469955E-20
  -22.9200001       2.73369912E-20
  -22.7999992       4.24662119E-20
  -22.6800003       4.48859769E-20
  -22.5599995       2.16984015E-20
  -22.4400005      -3.50869983E-20
  -22.3199997      -1.19618084E-19
  -22.2000008      -2.04789693E-19
  -22.0799999      -2.42008620E-19
  -21.9599991      -1.73452175E-19
  -21.8400002       4.16332313E-20
  -21.7199993       3.92218803E-19
  -21.6000004       7.86464456E-19
  -21.4799995       1.04811146E-18
  -21.3600006       9.55937272E-19
  -21.2399998       3.30835668E-19
  -21.1200008      -8.47813961E-19
  -21.0000000      -2.34032598E-18
  -20.8799992      -3.61907317E-18
  -20.7600002      -3.96756974E-18
  -20.6399994      -2.72147943E-18
  -20.5200005       3.95788888E-19
  -20.3999996       4.95778682E-18
  -20.2800007       9.69624671E-18
  -20.1599998       1.26791055E-17
  -20.0400009       1.18574438E-17
  -19.9200001       5.88730705E-18
  -19.7999992      -5.02499690E-18
  -19.6800003      -1.86059108E-17
  -19.5599995      -3.06575270E-17
  -19.4400005      -3.60226172E-17
  -19.3199997      -3.02453959E-17
  -19.2000008      -1.14840967E-17
  -19.0799999       1.79897291E-17
  -18.9599991       5.13815546E-17
  -18.8400002       7.84816326E-17
  -18.7199993       8.82556252E-17
  -18.6000004       7.23469038E-17
  -18.4799995       2.84960081E-17
  -18.3600006      -3.72596856E-17
  -18.2399998      -1.10527675E-16
  -18.1200008      -1.71034004E-16
  -18.0000000      -1.97325537E-16
  -17.8799992      -1.72739174E-16
  -17.7600002      -9.12281086E-17
  -17.6399994       3.85065347E-17
  -17.5200005       1.91951735E-16
  -17.3999996       3.31696064E-16
  -17.2800007       4.14522916E-16
  -17.1599998       4.01956018E-16
  -17.0400009       2.72442906E-16
  -16.9200001       3.22799227E-17
  -16.7999992      -2.78340982E-16
  -16.6800003      -5.87673047E-16
  -16.5599995      -8.05261465E-16
  -16.4400005      -8.44617792E-16
  -16.3199997      -6.51326408E-16
  -16.2000008      -2.28672055E-16
  -16.0799999       3.48847714E-16
  -15.9600000       9.42314519E-16
  -15.8400002       1.37853342E-15
  -15.7200003       1.49870230E-15
  -15.6000004       1.21263757E-15
  -15.4799995       5.40465148E-16
  -15.3599997      -3.75524090E-16
  -15.2399998      -1.29843957E-15
  -15.1199999      -1.96037814E-15
  -15.0000000      -2.14469420E-15
  -14.8800001      -1.76020022E-15
  -14.7600002      -8.80202705E-16
  -14.6400003       2.70590498E-16
  -14.5200005       1.38044210E-15
  -14.3999996       2.14629551E-15
  -14.2799997       2.36811947E-15
  -14.1599998       2.00844747E-15
  -14.0400000       1.19601666E-15
  -13.9200001       1.73456029E-16
  -13.8000002      -7.89642759E-16
  -13.6800003      -1.48405498E-15
  -13.5600004      -1.81560178E-15
  -13.4399996      -1.80892462E-15
  -13.3199997      -1.56426170E-15
  -13.1999998      -1.19108958E-15
  -13.0799999      -7.51595151E-16
  -12.9600000      -2.41316193E-16
  -12.8400002       3.83640757E-16
  -12.7200003       1.14585865E-15
  -12.6000004       1.98278195E-15
  -12.4799995       2.71510757E-15
  -12.3599997       3.07257538E-15
  -12.2399998       2.78042652E-15
  -12.1199999       1.68355983E-15
  -12.0000000      -1.36099136E-16
  -11.8800001      -2.30217372E-15
  -11.7600002      -4.19010216E-15
  -11.6400003      -5.09243238E-15
  -11.5200005      -4.47552897E-15
  -11.3999996      -2.25341956E-15
  -11.2799997       1.02940020E-15
  -11.1599998       4.21663462E-15
  -11.0400000       5.82726353E-15
  -10.9200001       4.58825677E-15
  -10.8000002       7.48557294E-17
  -10.6800003      -6.77915450E-15
  -10.5600004      -1.35710729E-14
  -10.4399996      -1.69135725E-14
  -10.3199997      -1.35204543E-14
  -10.1999998      -1.64475513E-15
  -10.0799999       1.76124899E-14
  -9.96000004       3.97046254E-14
  -9.84000015       5.72190881E-14
  -9.72000027       6.17585952E-14
  -9.60000038       4.67632525E-14
  -9.47999954       1.04516463E-14
  -9.35999966      -4.21866623E-14
  -9.23999977      -9.92994071E-14
  -9.11999989      -1.44431586E-13
  -9.00000000      -1.60825007E-13
  -8.88000011      -1.36666991E-13
  -8.76000023      -6.96935727E-14
  -8.64000034       3.04557710E-14
  -8.52000046       1.43186990E-13
  -8.39999962       2.41292500E-13
  -8.27999973       2.97691478E-13
  -8.15999985       2.92746215E-13
  -8.03999996       2.20050649E-13
  -7.92000008       8.89734047E-14
  -7.80000019      -7.68223104E-14
  -7.67999983      -2.44473658E-13
  -7.55999994      -3.79188732E-13
  -7.44000006      -4.51716084E-13
  -7.32000017      -4.44156457E-13
  -7.19999981      -3.52954672E-13
  -7.07999992      -1.88886843E-13
  -6.96000004       2.52777417E-14
  -6.84000015       2.58331876E-13
  -6.71999979       4.74438793E-13
  -6.59999990       6.36805983E-13
  -6.48000002       7.11493635E-13
  -6.36000013       6.71946765E-13
  -6.23999977       5.04546925E-13
  -6.11999989       2.14596393E-13
  -6.00000000      -1.68958651E-13
  -5.88000011      -5.92482877E-13
  -5.76000023      -9.82487529E-13
  -5.63999987      -1.25715530E-12
  -5.51999998      -1.34307843E-12
  -5.40000010      -1.19336344E-12
  -5.28000021      -8.01830282E-13
  -5.15999985      -2.08398877E-13
  -5.03999996       5.06871780E-13
  -4.92000008       1.23990488E-12
  -4.80000019       1.88395350E-12
  -4.67999983       2.34907796E-12
  -4.55999994       2.57317930E-12
  -4.44000006       2.52139152E-12
  -4.32000017       2.17571902E-12
  -4.19999981       1.52166864E-12
  -4.07999992       5.41071257E-13
  -3.96000004      -7.81085320E-13
  -3.83999991      -2.43316218E-12
  -3.72000003      -4.34150198E-12
  -3.59999990      -6.33499026E-12
  -3.48000002      -8.12518369E-12
  -3.35999990      -9.31638273E-12
  -3.24000001      -9.45351956E-12
  -3.11999989      -8.10557003E-12
  -3.00000000      -4.97129508E-12
  -2.88000011       1.42328267E-14
  -2.75999999       6.59715208E-12
  -2.64000010       1.41684537E-11
  -2.51999998       2.17876186E-11
  -2.40000010       2.82686756E-11
  -2.27999997       3.23192272E-11
  -2.16000009       3.27132071E-11
  -2.03999996       2.84726270E-11
  -1.91999996       1.90326869E-11
  -1.79999995       4.36859099E-12
  -1.67999995      -1.49307129E-11
  -1.55999994      -3.76476766E-11
  -1.44000006      -6.19774509E-11
  -1.32000005      -8.56153204E-11
  -1.20000005      -1.05875912E-10
  -1.08000004      -1.19828231E-10
 -0.959999979      -1.24432298E-10
 -0.839999974      -1.16667315E-10
 -0.720000029      -9.36464309E-11
 -0.600000024      -5.27190687E-11
 -0.479999989       8.43455861E-12
 -0.360000014       9.17106044E-11
 -0.239999995       1.98486241E-10
 -0.119999997       3.29522992E-10
  -1.11022302E-15   4.84877749E-10
  0.119999997       6.63838096E-10
  0.239999995       8.64903538E-10
  0.360000014       1.08583620E-09
  0.479999989       1.32379441E-09
  0.600000024       1.57555469E-09
  0.720000029       1.83780513E-09
  0.839999974       2.10748019E-09
  0.959999979       2.38209275E-09
   1.08000004       2.66001576E-09
   1.20000005       2.94067437E-09
   1.32000005       3.22462590E-09
   1.44000006       3.51352392E-09
   1.55999994       3.80998744E-09
   1.67999995       4.11740420E-09
   1.79999995       4.43970505E-09
   1.91999996       4.78113726E-09
   2.03999996       5.14605558E-09
   2.16000009       5.53873702E-09
   2.27999997       5.96322813E-09
   2.40000010       6.42321796E-09
   2.51999998       6.92195767E-09
   2.64000010       7.46223705E-09
   2.75999999       8.04644440E-09
   2.88000011       8.67671801E-09
   3.00000000       9.35517974E-09
   3.11999989       1.00842232E-08
   3.24000001       1.08667999E-08
   3.35999990       1.17066339E-08
   3.48000002       1.26082993E-08
   3.59999990       1.35771385E-08
   3.72000003       1.46189976E-08
   3.83999991       1.57398627E-08
   3.96000004       1.69454353E-08
   4.07999992       1.82407813E-08
   4.19999981       1.96301215E-08
   4.32000017       2.11168381E-08
   4.44000006       2.27037003E-08
   4.55999994       2.43932874E-08
   4.67999983       2.61885145E-08
   4.80000019       2.80932131E-08
   4.92000008       3.01126448E-08
   5.03999996       3.22538831E-08
   5.15999985       3.45260709E-08
   5.28000021       3.69404702E-08
   5.40000010       3.95104145E-08
   5.51999998       4.22511128E-08
   5.63999987       4.51793589E-08
   5.76000023       4.83131792E-08
   5.88000011       5.16714067E-08
   6.00000000       5.52732260E-08
   6.11999989       5.91377365E-08
   6.23999977       6.32834869E-08
   6.36000013       6.77282017E-08
   6.48000002       7.24886036E-08
   6.59999990       7.75804310E-08
   6.71999979       8.30186409E-08
   6.84000015       8.88178349E-08
   6.96000004       9.49926928E-08
   7.07999992       1.01558506E-07
   7.19999981       1.08531637E-07
   7.32000017       1.15929815E-07
   7.44000006       1.23772367E-07
   7.55999994       1.32080245E-07
   7.67999983       1.40876040E-07
   7.80000019       1.50183837E-07
   7.92000008       1.60029202E-07
   8.03999996       1.70439009E-07
   8.15999985       1.81441578E-07
   8.27999973       1.93066683E-07
   8.39999962       2.05345799E-07
   8.52000046       2.18312252E-07
   8.64000034       2.32001554E-07
   8.76000023       2.46451521E-07
   8.88000011       2.61702269E-07
   9.00000000       2.77796232E-07
   9.11999989       2.94777749E-07
   9.23999977       3.12692634E-07
   9.35999966       3.31587785E-07
   9.47999954       3.51510693E-07
   9.60000038       3.72509419E-07
   9.72000027       3.94632707E-07
   9.84000015       4.17930295E-07
   9.96000004       4.42453683E-07
   10.0799999       4.68256616E-07
   10.1999998       4.95395398E-07
   10.3199997       5.23929089E-07
   10.4399996       5.53918937E-07
   10.5600004       5.85427927E-07
   10.6800003       6.18520346E-07
   10.8000002       6.53261054E-07
   10.9200001       6.89715534E-07
   11.0400000       7.27950294E-07
   11.1599998       7.68033601E-07
   11.2799997       8.10036170E-07
   11.3999996       8.54032180E-07
   11.5200005       9.00099508E-07
   11.6400003       9.48320007E-07
   11.7600002       9.98778887E-07
   11.8800001       1.05156437E-06
   12.0000000       1.10676626E-06
   12.1199999       1.16447518E-06
   12.2399998       1.22478241E-06
   12.3599997       1.28777947E-06
   12.4799995       1.35355845E-06
   12.6000004       1.42221211E-06
   12.7200003       1.49383527E-06
   12.8400002       1.56852457E-06
   12.9600000       1.64638004E-06
   13.0799999       1.72750390E-06
   13.1999998       1.81200187E-06
   13.3199997       1.89998161E-06
   13.4399996       1.99155329E-06
   13.5600004       2.08682673E-06
   13.6800003       2.18591344E-06
   13.8000002       2.28892281E-06
   13.9200001       2.39596397E-06
   14.0400000       2.50714356E-06
   14.1599998       2.62256731E-06
   14.2799997       2.74233957E-06
   14.3999996       2.86656655E-06
   14.5200005       2.99535577E-06
   14.6400003       3.12881957E-06
   14.7600002       3.26707436E-06
   14.8800001       3.41024179E-06
   15.0000000       3.55844827E-06
   15.1199999       3.71182250E-06
   15.2399998       3.87049249E-06
   15.3599997       4.03458307E-06
   15.4799995       4.20421475E-06
   15.6000004       4.37950075E-06
   15.7200003       4.56054795E-06
   15.8400002       4.74745730E-06
   15.9600000       4.94032702E-06
   16.0799999       5.13925170E-06
   16.2000008       5.34432593E-06
   16.3199997       5.55564293E-06
   16.4400005       5.77329683E-06
   16.5599995       5.99737905E-06
   16.6800003       6.22798052E-06
   16.7999992       6.46518902E-06
   16.9200001       6.70909185E-06
   17.0400009       6.95977405E-06
   17.1599998       7.21731885E-06
   17.2800007       7.48180582E-06
   17.3999996       7.75331227E-06
   17.5200005       8.03190778E-06
   17.6399994       8.31765556E-06
   17.7600002       8.61060835E-06
   17.8799992       8.91080890E-06
   18.0000000       9.21828905E-06
   18.1200008       9.53307244E-06
   18.2399998       9.85517272E-06
   18.3600006       1.01845990E-05
   18.4799995       1.05213503E-05
   18.6000004       1.08654249E-05
   18.7199993       1.12168136E-05
   18.8400002       1.15754992E-05
   18.9599991       1.19414608E-05
   19.0799999       1.23146710E-05
   19.2000008       1.26950954E-05
   19.3199997       1.30826975E-05
   19.4400005       1.34774282E-05
   19.5599995       1.38792329E-05
   19.6800003       1.42880453E-05
   19.7999992       1.47037817E-05
   19.9200001       1.51263439E-05
   20.0400009       1.55556172E-05
   20.1599998       1.59914671E-05
   20.2800007       1.64337471E-05
   20.3999996       1.68823008E-05
   20.5200005       1.73369572E-05
   20.6399994       1.77975380E-05
   20.7600002       1.82638669E-05
   20.8799992       1.87357491E-05
   21.0000000       1.92129864E-05
   21.1200008       1.96953715E-05
   21.2399998       2.01826806E-05
   21.3600006       2.06746699E-05
   21.4799995       2.11710958E-05
   21.6000004       2.16716817E-05
   21.7199993       2.21761511E-05
   21.8400002       2.26842076E-05
   21.9599991       2.31955491E-05
   22.0799999       2.37098648E-05
   22.2000008       2.42268288E-05
   22.3199997       2.47461139E-05
   22.4400005       2.52673726E-05
   22.5599995       2.57902502E-05
   22.6800003       2.63143829E-05
   22.7999992       2.68393887E-05
   22.9200001       2.73648657E-05
   23.0400009       2.78904081E-05
   23.1599998       2.84155904E-05
   23.2800007       2.89399741E-05
   23.3999996       2.94631227E-05
   23.5200005       2.99845833E-05
   23.6399994       3.05039048E-05
   23.7600002       3.10206233E-05
   23.8799992       3.15342695E-05
   24.0000000       3.20443614E-05
   24.1200008       3.25504188E-05
   24.2399998       3.30519215E-05
   24.3600006       3.35483564E-05
   24.4799995       3.40391889E-05
   24.6000004       3.45238768E-05
   24.7199993       3.50018672E-05
   24.8400002       3.54726108E-05
   24.9599991       3.59355436E-05
   25.0799999       3.63901199E-05
   25.2000008       3.68357796E-05
   25.3199997       3.72719769E-05
   25.4400005       3.76981625E-05
   25.5599995       3.81137797E-05
   25.6800003       3.85182793E-05
   25.7999992       3.89110974E-05
   25.9200001       3.92916772E-05
   26.0400009       3.96594296E-05
   26.1599998       4.00137797E-05
   26.2800007       4.03541271E-05
   26.3999996       4.06798717E-05
   26.5200005       4.09904023E-05
   26.6399994       4.12851186E-05
   26.7600002       4.15634240E-05
   26.8799992       4.18247255E-05
   27.0000000       4.20684373E-05
   27.1200008       4.22939920E-05
   27.2399998       4.25008257E-05
   27.3600006       4.26883780E-05
   27.4799995       4.28560925E-05
   27.6000004       4.30034124E-05
   27.7199993       4.31297776E-05
   27.8400002       4.32346278E-05
   27.9599991       4.33174173E-05
   28.0799999       4.33776113E-05
   28.2000008       4.34146859E-05
   28.3199997       4.34281246E-05
   28.4400005       4.34174362E-05
   28.5599995       4.33821369E-05
   28.6800003       4.33217574E-05
   28.7999992       4.32358393E-05
   28.9200001       4.31239314E-05
   29.0400009       4.29855972E-05
   29.1599998       4.28204112E-05
   29.2800007       4.26279621E-05
   29.3999996       4.24078316E-05
   29.5200005       4.21596196E-05
   29.6399994       4.18829150E-05
   29.7600002       4.15773138E-05
   29.8799992       4.12424051E-05
   30.0000000       4.08777851E-05
   30.1200008       4.04830607E-05
   30.2399998       4.00578610E-05
   30.3600006       3.96018404E-05
   30.4799995       3.91146823E-05
   30.6000004       3.85961102E-05
   30.7199993       3.80458696E-05
   30.8400002       3.74637275E-05
   30.9599991       3.68494693E-05
   31.0799999       3.62028732E-05
   31.2000008       3.55237207E-05
   31.3199997       3.48117755E-05
   31.4400005       3.40668012E-05
   31.5599995       3.32885611E-05
   31.6800003       3.24768152E-05
   31.7999992       3.16313381E-05
   31.9200001       3.07519294E-05
   32.0400009       2.98384075E-05
   32.1599998       2.88906394E-05
   32.2799988       2.79085234E-05
   32.4000015       2.68919921E-05
   32.5200005       2.58410037E-05
   32.6399994       2.47555399E-05
   32.7599983       2.36355809E-05
   32.8800011       2.24811029E-05
   33.0000000       2.12920713E-05
   33.1199989       2.00684372E-05
   33.2400017       1.88101476E-05
   33.3600006       1.75171444E-05
   33.4799995       1.61893895E-05
   33.5999985       1.48268646E-05
   33.7200012       1.34295778E-05
   33.8400002       1.19975675E-05
   33.9599991       1.05308964E-05
   34.0800018       9.02964439E-06
   34.2000008       7.49390165E-06
   34.3199997       5.92376136E-06
   34.4399986       4.31931858E-06
   34.5600014       2.68066401E-06
   34.6800003       1.00788293E-06
   34.7999992      -6.98946110E-07
   34.9199982      -2.43974910E-06
   35.0400009      -4.21445657E-06
   35.1599998      -6.02299724E-06
   35.2799988      -7.86529199E-06
   35.4000015      -9.74124941E-06
   35.5200005      -1.16507581E-05
   35.6399994      -1.35936843E-05
   35.7599983      -1.55698726E-05
   35.8800011      -1.75791592E-05
   36.0000000      -1.96213769E-05
   36.1199989      -2.16963599E-05
   36.2400017      -2.38039647E-05
   36.3600006      -2.59440585E-05
   36.4799995      -2.81165303E-05
   36.5999985      -3.03212692E-05
   36.7200012      -3.25581641E-05
   36.8400002      -3.48270914E-05
   36.9599991      -3.71279166E-05
   37.0800018      -3.94605122E-05
   37.2000008      -4.18247328E-05
   37.3199997      -4.42204473E-05
   37.4399986      -4.66475321E-05
   37.5600014      -4.91058854E-05
   37.6800003      -5.15953980E-05
   37.7999992      -5.41159970E-05
   37.9199982      -5.66675772E-05
   38.0400009      -5.92500655E-05
   38.1599998      -6.18633640E-05
   38.2799988      -6.45074033E-05
   38.4000015      -6.71820962E-05
   38.5200005      -6.98873919E-05
   38.6399994      -7.26232320E-05
   38.7599983      -7.53895583E-05
   38.8800011      -7.81863419E-05
   39.0000000      -8.10135389E-05
   39.1199989      -8.38711057E-05
   39.2400017      -8.67590352E-05
   39.3600006      -8.96772908E-05
   39.4799995      -9.26258726E-05
   39.5999985      -9.56047443E-05
   39.7200012      -9.86139057E-05
   39.8400002      -1.01653335E-04
   39.9599991      -1.04723025E-04
   40.0800018      -1.07822976E-04
   40.2000008      -1.10953195E-04
   40.3199997      -1.14113689E-04
   40.4399986      -1.17304524E-04
   40.5600014      -1.20525750E-04
   40.6800003      -1.23777427E-04
   40.7999992      -1.27059611E-04
   40.9199982      -1.30372340E-04
   41.0400009      -1.33715672E-04
   41.1599998      -1.37089621E-04
   41.2799988      -1.40494201E-04
   41.4000015      -1.43929399E-04
   41.5200005      -1.47395243E-04
   41.6399994      -1.50891705E-04
   41.7599983      -1.54418783E-04
   41.8800011      -1.57976450E-04
   42.0000000      -1.61564705E-04
   42.1199989      -1.65183577E-04
   42.2400017      -1.68833067E-04
   42.3600006      -1.72513173E-04
   42.4799995      -1.76223912E-04
   42.5999985      -1.79965296E-04
   42.7200012      -1.83737327E-04
   42.8400002      -1.87539947E-04
   42.9599991      -1.91373110E-04
   43.0800018      -1.95236687E-04
   43.2000008      -1.99130489E-04
   43.3199997      -2.03054296E-04
   43.4399986      -2.07007834E-04
   43.5600014      -2.10990824E-04
   43.6800003      -2.15002947E-04
   43.7999992      -2.19043883E-04
   43.9199982      -2.23113311E-04
   44.0400009      -2.27210927E-04
   44.1599998      -2.31336424E-04
   44.2799988      -2.35489410E-04
   44.4000015      -2.39669491E-04
   44.5200005      -2.43876188E-04
   44.6399994      -2.48108903E-04
   44.7599983      -2.52367026E-04
   44.8800011      -2.56649830E-04
   45.0000000      -2.60956527E-04
   45.1199989      -2.65286304E-04
   45.2400017      -2.69638287E-04
   45.3600006      -2.74011574E-04
   45.4799995      -2.78405234E-04
   45.5999985      -2.82818248E-04
   45.7200012      -2.87249655E-04
   45.8400002      -2.91698321E-04
   45.9599991      -2.96163053E-04
   46.0800018      -3.00642685E-04
   46.2000008      -3.05135880E-04
   46.3199997      -3.09641240E-04
   46.4399986      -3.14157252E-04
   46.5600014      -3.18682374E-04
   46.6800003      -3.23214917E-04
   46.7999992      -3.27753165E-04
   46.9199982      -3.32295371E-04
   47.0400009      -3.36839672E-04
   47.1599998      -3.41384090E-04
   47.2799988      -3.45926645E-04
   47.4000015      -3.50465241E-04
   47.5200005      -3.54997639E-04
   47.6399994      -3.59521655E-04
   47.7599983      -3.64034815E-04
   47.8800011      -3.68534733E-04
   48.0000000      -3.73018847E-04
   48.1199989      -3.77484510E-04
   48.2400017      -3.81929160E-04
   48.3600006      -3.86349973E-04
   48.4799995      -3.90744099E-04
   48.5999985      -3.95108626E-04
   48.7200012      -3.99440585E-04
   48.8400002      -4.03736893E-04
   48.9599991      -4.07994346E-04
   49.0800018      -4.12209833E-04
   49.2000008      -4.16379975E-04
   49.3199997      -4.20501456E-04
   49.4399986      -4.24570899E-04
   49.5600014      -4.28584754E-04
   49.6800003      -4.32539498E-04
   49.7999992      -4.36431495E-04
   49.9199982      -4.40257078E-04
   50.0400009      -4.44012461E-04
   50.1599998      -4.47693834E-04
   50.2799988      -4.51297412E-04
   50.4000015      -4.54819354E-04
   50.5200005      -4.58255759E-04
   50.6399994      -4.61602671E-04
   50.7599983      -4.64856159E-04
   50.8800011      -4.68012237E-04
   51.0000000      -4.71067004E-04
   51.1199989      -4.74016299E-04
   51.2400017      -4.76856134E-04
   51.3600006      -4.79582464E-04
   51.4799995      -4.82191303E-04
   51.5999985      -4.84678545E-04
   51.7200012      -4.87040146E-04
   51.8400002      -4.89272119E-04
   51.9599991      -4.91370505E-04
   52.0800018      -4.93331230E-04
   52.2000008      -4.95150336E-04
   52.3199997      -4.96823981E-04
   52.4399986      -4.98348323E-04
   52.5600014      -4.99719521E-04
   52.6800003      -5.00933849E-04
   52.7999992      -5.01987641E-04
   52.9199982      -5.02877345E-04
   53.0400009      -5.03599469E-04
   53.1599998      -5.04150696E-04
   53.2799988      -5.04527590E-04
   53.4000015      -5.04726893E-04
   53.5200005      -5.04745578E-04
   53.6399994      -5.04580617E-04
   53.7599983      -5.04229160E-04
   53.8800011      -5.03688352E-04
   54.0000000      -5.02955634E-04
   54.1199989      -5.02028561E-04
   54.2400017      -5.00904687E-04
   54.3600006      -4.99581918E-04
   54.4799995      -4.98058158E-04
   54.5999985      -4.96331661E-04
   54.7200012      -4.94400563E-04
   54.8400002      -4.92263469E-04
   54.9599991      -4.89918981E-04
   55.0800018      -4.87365876E-04
   55.2000008      -4.84603312E-04
   55.3199997      -4.81630501E-04
   55.4399986      -4.78446891E-04
   55.5600014      -4.75052191E-04
   55.6800003      -4.71446227E-04
   55.7999992      -4.67629259E-04
   55.9199982      -4.63601609E-04
   56.0400009      -4.59363859E-04
   56.1599998      -4.54916764E-04
   56.2799988      -4.50261345E-04
   56.4000015      -4.45398793E-04
   56.5200005      -4.40330536E-04
   56.6399994      -4.35058319E-04
   56.7599983      -4.29584004E-04
   56.8800011      -4.23909776E-04
   57.0000000      -4.18038166E-04
   57.1199989      -4.11971851E-04
   57.2400017      -4.05713799E-04
   57.3600006      -3.99267243E-04
   57.4799995      -3.92635557E-04
   57.5999985      -3.85822466E-04
   57.7200012      -3.78831814E-04
   57.8400002      -3.71667673E-04
   57.9599991      -3.64334439E-04
   58.0800018      -3.56836652E-04
   58.2000008      -3.49179172E-04
   58.3199997      -3.41366947E-04
   58.4399986      -3.33405274E-04
   58.5600014      -3.25299654E-04
   58.6800003      -3.17055761E-04
   58.7999992      -3.08679475E-04
   58.9199982      -3.00176966E-04
   59.0400009      -2.91554490E-04
   59.1599998      -2.82818568E-04
   59.2799988      -2.73975922E-04
   59.4000015      -2.65033363E-04
   59.5200005      -2.55997904E-04
   59.6399994      -2.46876705E-04
   59.7599983      -2.37677086E-04
   59.8800011      -2.28406367E-04
   60.0000000      -2.19072099E-04
   60.1199989      -2.09681923E-04
   60.2400017      -2.00243623E-04
   60.3600006      -1.90765117E-04
   60.4799995      -1.81254392E-04
   60.5999985      -1.71719541E-04
   60.7200012      -1.62168726E-04
   60.8400002      -1.52610141E-04
   60.9599991      -1.43052006E-04
   61.0800018      -1.33502515E-04
   61.2000008      -1.23969890E-04
   61.3199997      -1.14462309E-04
   61.4399986      -1.04988045E-04
   61.5600014      -9.55553551E-05
   61.6800003      -8.61725130E-05
   61.7999992      -7.68478349E-05
   61.9199982      -6.75895353E-05
   62.0400009      -5.84057561E-05
   62.1599998      -4.93045154E-05
   62.2799988      -4.02936894E-05
   62.4000015      -3.13809905E-05
   62.5200005      -2.25739805E-05
   62.6399994      -1.38800851E-05
   62.7599983      -5.30663465E-06
   62.8800011       3.13915643E-06
   63.0000000       1.14501872E-05
   63.1199989       1.96195033E-05
   63.2400017       2.76403207E-05
   63.3600006       3.55060693E-05
   63.4799995       4.32103880E-05
   63.5999985       5.07471486E-05
   63.7200012       5.81104432E-05
   63.8400002       6.52945673E-05
   63.9599991       7.22940458E-05
   64.0800018       7.91036655E-05
   64.1999969       8.57184859E-05
   64.3199997       9.21338869E-05
   64.4400024       9.83455611E-05
   64.5599976       1.04349514E-04
   64.6800003       1.10142042E-04
   64.8000031       1.15719718E-04
   64.9199982       1.21079356E-04
   65.0400009       1.26218059E-04
   65.1600037       1.31133202E-04
   65.2799988       1.35822469E-04
   65.4000015       1.40283883E-04
   65.5199966       1.44515798E-04
   65.6399994       1.48516934E-04
   65.7600021       1.52286273E-04
   65.8799973       1.55823102E-04
   66.0000000       1.59127027E-04
   66.1200027       1.62197917E-04
   66.2399979       1.65036021E-04
   66.3600006       1.67641949E-04
   66.4800034       1.70016632E-04
   66.5999985       1.72161381E-04
   66.7200012       1.74077824E-04
   66.8399963       1.75767869E-04
   66.9599991       1.77233655E-04
   67.0800018       1.78477567E-04
   67.1999969       1.79502225E-04
   67.3199997       1.80310511E-04
   67.4400024       1.80905583E-04
   67.5599976       1.81290889E-04
   67.6800003       1.81470183E-04
   67.8000031       1.81447496E-04
   67.9199982       1.81227093E-04
   68.0400009       1.80813542E-04
   68.1600037       1.80211602E-04
   68.2799988       1.79426279E-04
   68.4000015       1.78462782E-04
   68.5199966       1.77326496E-04
   68.6399994       1.76022950E-04
   68.7600021       1.74557863E-04
   68.8799973       1.72936998E-04
   69.0000000       1.71166292E-04
   69.1200027       1.69251769E-04
   69.2399979       1.67199600E-04
   69.3600006       1.65016099E-04
   69.4800034       1.62707685E-04
   69.5999985       1.60280935E-04
   69.7200012       1.57742426E-04
   69.8399963       1.55098838E-04
   69.9599991       1.52356908E-04
   70.0800018       1.49523388E-04
   70.1999969       1.46605045E-04
   70.3199997       1.43608660E-04
   70.4400024       1.40541000E-04
   70.5599976       1.37408817E-04
   70.6800003       1.34218819E-04
   70.8000031       1.30977685E-04
   70.9199982       1.27691994E-04
   71.0400009       1.24368351E-04
   71.1600037       1.21013189E-04
   71.2799988       1.17632895E-04
   71.4000015       1.14233808E-04
   71.5199966       1.10822140E-04
   71.6399994       1.07403997E-04
   71.7600021       1.03985367E-04
   71.8799973       1.00572106E-04
   72.0000000       9.71699264E-05
   72.1200027       9.37844015E-05
   72.2399979       9.04209373E-05
   72.3600006       8.70848162E-05
   72.4800034       8.37811385E-05
   72.5999985       8.05148084E-05
   72.7200012       7.72905623E-05