  -30.0000000       0.00000000    
  -29.8799992       0.00000000    
  -29.7600002       0.00000000    
  -29.6399994       0.00000000    
  -29.5200005       0.00000000    
  -29.3999996       0.00000000    
  -29.2800007       3.17546685E-33
  -29.1599998       8.46204588E-32
  -29.0400009       9.07864662E-31
  -28.9200001       6.04035954E-30
  -28.7999992       2.71560486E-29
  -28.6800003       8.21788590E-29
  -28.5599995       1.47522201E-28
  -28.4400005       2.81720278E-29
  -28.3199997      -7.00264083E-28
  -28.2000008      -2.03371596E-27
  -28.0799999      -1.16930602E-27
  -27.9599991       1.13894382E-26
  -27.8400002       5.28828747E-26
  -27.7199993       1.36497145E-25
  -27.6000004       2.37311350E-25
  -27.4799995       2.44648520E-25
  -27.3600006      -5.33310155E-26
  -27.2399998      -8.76263933E-25
  -27.1200008      -2.20195139E-24
  -27.0000000      -3.44221744E-24
  -26.8799992      -3.31065122E-24
  -26.7600002      -2.19655188E-25
  -26.6399994       6.70315700E-24
  -26.5200005       1.64612347E-23
  -26.3999996       2.58670504E-23
  -26.2800007       3.07090108E-23
  -26.1599998       2.75827014E-23
  -26.0400009       1.37656512E-23
  -25.9200001      -1.72952610E-23
  -25.7999992      -8.28416032E-23
  -25.6800003      -2.09939199E-22
  -25.5599995      -4.11537526E-22
  -25.4400005      -6.31910907E-22
  -25.3199997      -6.81601974E-22
  -25.2000008      -2.21478594E-22
  -25.0799999       1.12171507E-21
  -24.9599991       3.45890501E-21
  -24.8400002       6.22150610E-21
  -24.7199993       7.83984821E-21
  -24.6000004       5.84611150E-21
  -24.4799995      -2.31251366E-21
  -24.3600006      -1.77199810E-20
  -24.2399998      -3.80676143E-20
  -24.1200008      -5.61032924E-20
  -24.0000000      -5.93715606E-20
  -23.8799992      -3.21260826E-20
  -23.7600002       3.98119444E-20
  -23.6399994       1.60605026E-19
  -23.5200005       3.12321091E-19
  -23.3999996       4.41340717E-19
  -23.2800007       4.50069954E-19
  -23.1599998       2.07275797E-19
  -23.0400009      -4.05670388E-19
  -22.9200001      -1.40188471E-18
  -22.7999992      -2.56345691E-18
  -22.6800003      -3.34036624E-18
  -22.5599995      -2.87530587E-18
  -22.4400005      -2.66513794E-19
  -22.3199997       4.88449779E-18
  -22.2000008       1.17549090E-17
  -22.0799999       1.77489286E-17
  -21.9599991       1.86210813E-17
  -21.8400002       9.74247949E-18
  -21.7199993      -1.14095702E-17
  -21.6000004      -4.21853940E-17
  -21.4799995      -7.25898501E-17
  -21.3600006      -8.59222281E-17
  -21.2399998      -6.36988364E-17
  -21.1200008       5.29809968E-18
  -21.0000000       1.14507089E-16
  -20.8799992       2.32649960E-16
  -20.7600002       3.06184570E-16
  -20.6399994       2.74836886E-16
  -20.5200005       9.86314810E-17
  -20.3999996      -2.12123943E-16
  -20.2800007      -5.78015601E-16
  -20.1599998      -8.57480358E-16
  -20.0400009      -8.87154410E-16
  -19.9200001      -5.49380911E-16
  -19.7999992       1.55429752E-16
  -19.6800003       1.06465488E-15
  -19.5599995       1.86861821E-15
  -19.4400005       2.19805579E-15
  -19.3199997       1.76655084E-15
  -19.2000008       5.19278419E-16
  -19.0799999      -1.27773427E-15
  -18.9599991      -3.06424862E-15
  -18.8400002      -4.14629785E-15
  -18.7199993      -3.95196859E-15
  -18.6000004      -2.29201695E-15
  -18.4799995       4.86973270E-16
  -18.3600006       3.54417770E-15
  -18.2399998       5.79856775E-15
  -18.1200008       6.32269438E-15
  -18.0000000       4.73042617E-15
  -17.8799992       1.39360859E-15
  -17.7600002      -2.62542034E-15
  -17.6399994      -5.92881262E-15
  -17.5200005      -7.30399814E-15
  -17.3999996      -6.20404496E-15
  -17.2800007      -2.98135184E-15
  -17.1599998       1.23724334E-15
  -17.0400009       4.99137161E-15
  -16.9200001       7.05452025E-15
  -16.7999992       6.87131126E-15
  -16.6800003       4.66346779E-15
  -16.5599995       1.16715454E-15
  -16.4400005      -2.83510652E-15
  -16.3199997      -6.89089212E-15
  -16.2000008      -1.08854898E-14
  -16.0799999      -1.45983655E-14
  -15.9600000      -1.70260246E-14
  -15.8400002      -1.59470825E-14
  -15.7200003      -8.25697712E-15
  -15.6000004       8.65567553E-15
  -15.4799995       3.47465722E-14
  -15.3599997       6.52285775E-14
  -15.2399998       8.98061126E-14
  -15.1199999       9.43539612E-14
  -15.0000000       6.54076470E-14
  -14.8800001      -3.40792970E-15
  -14.7600002      -1.05176176E-13
  -14.6400003      -2.16622605E-13
  -14.5200005      -3.00766465E-13
  -14.3999996      -3.16273537E-13
  -14.2799997      -2.31945648E-13
  -14.1599998      -4.21140004E-14
  -14.0400000       2.22972072E-13
  -13.9200001       4.97372434E-13
  -13.8000002       6.93234586E-13
  -13.6800003       7.26490808E-13
  -13.5600004       5.47756664E-13
  -13.4399996       1.68023920E-13
  -13.3199997      -3.31764428E-13
  -13.1999998      -8.14545209E-13
  -13.0799999      -1.12439235E-12
  -12.9600000      -1.13829779E-12
  -12.8400002      -8.16086673E-13
  -12.7200003      -2.29229233E-13
  -12.6000004       4.46747619E-13
  -12.4799995       9.80827073E-13
  -12.3599997       1.16574393E-12
  -12.2399998       9.03381916E-13
  -12.1199999       2.63981247E-13
  -12.0000000      -5.10077332E-13
  -11.8800001      -1.06974087E-12
  -11.7600002      -1.08334468E-12
  -11.6400003      -3.82624948E-13
  -11.5200005       9.23399595E-13
  -11.3999996       2.42062121E-12
  -11.2799997       3.48026230E-12
  -11.1599998       3.45989014E-12
  -11.0400000       1.96145400E-12
  -10.9200001      -9.42281084E-13
  -10.8000002      -4.60928561E-12
  -10.6800003      -7.92558293E-12
  -10.5600004      -9.60485684E-12
  -10.4399996      -8.62047499E-12
  -10.3199997      -4.63540057E-12
  -10.1999998       1.72985942E-12
  -10.0799999       8.92038526E-12
  -9.96000004       1.48052820E-11
  -9.84000015       1.73001682E-11
  -9.72000027       1.50751148E-11
  -9.60000038       8.11195121E-12
  -9.47999954      -2.10460143E-12
  -9.35999966      -1.28760466E-11
  -9.23999977      -2.10184595E-11
  -9.11999989      -2.38307239E-11
  -9.00000000      -1.99987596E-11
  -8.88000011      -1.01244716E-11
  -8.76000023       3.32998841E-12
  -8.64000034       1.67074965E-11
  -8.52000046       2.62467981E-11
  -8.39999962       2.92546855E-11
  -8.27999973       2.49642668E-11
  -8.15999985       1.47690592E-11
  -8.03999996       1.72345406E-12
  -7.92000008      -1.05461265E-11
  -7.80000019      -1.91560361E-11
  -7.67999983      -2.30394211E-11
  -7.55999994      -2.33715824E-11
  -7.44000006      -2.31510280E-11
  -7.32000017      -2.60405603E-11
  -7.19999981      -3.48579637E-11
  -7.07999992      -5.02688308E-11
  -6.96000004      -7.02049738E-11
  -6.84000015      -9.03032440E-11
  -6.71999979      -1.05299471E-10
  -6.59999990      -1.10942672E-10
  -6.48000002      -1.05753656E-10
  -6.36000013      -9.19409271E-11
  -6.23999977      -7.50323692E-11
  -6.11999989      -6.22144281E-11
  -6.00000000      -5.98472313E-11
  -5.88000011      -7.09748788E-11
  -5.76000023      -9.37319042E-11
  -5.63999987      -1.21311836E-10
  -5.51999998      -1.43672976E-10
  -5.40000010      -1.50567475E-10
  -5.28000021      -1.34995889E-10
  -5.15999985      -9.59852822E-11
  -5.03999996      -3.97476323E-11
  -4.92000008       2.12478854E-11
  -4.80000019       7.11100068E-11
  -4.67999983       9.44928163E-11
  -4.55999994       8.05649575E-11
  -4.44000006       2.58498622E-11
  -4.32000017      -6.48482726E-11
  -4.19999981      -1.79647214E-10
  -4.07999992      -3.02527198E-10
  -3.96000004      -4.17163915E-10
  -3.83999991      -5.10629317E-10
  -3.72000003      -5.76056869E-10
  -3.59999990      -6.13727402E-10
  -3.48000002      -6.30488717E-10
  -3.35999990      -6.37844499E-10
  -3.24000001      -6.49317933E-10
  -3.11999989      -6.77780609E-10
  -3.00000000      -7.33324179E-10
  -2.88000011      -8.22034663E-10
  -2.75999999      -9.45756806E-10
  -2.64000010      -1.10269549E-09
  -2.51999998      -1.28853417E-09
  -2.40000010      -1.49769885E-09
  -2.27999997      -1.72444681E-09
  -2.16000009      -1.96358374E-09
  -2.03999996      -2.21080354E-09
  -1.91999996      -2.46278886E-09
  -1.79999995      -2.71730061E-09
  -1.67999995      -2.97345171E-09
  -1.55999994      -3.23221361E-09
  -1.44000006      -3.49697871E-09
  -1.32000005      -3.77382259E-09
  -1.20000005      -4.07105505E-09
  -1.08000004      -4.39780479E-09
 -0.959999979      -4.76175455E-09
 -0.839999974      -5.16657828E-09
 -0.720000029      -5.61002667E-09
 -0.600000024      -6.08363981E-09
 -0.479999989      -6.57475674E-09
 -0.360000014      -7.07071068E-09
 -0.239999995      -7.56424434E-09
 -0.119999997      -8.05836908E-09
  -1.11022302E-15  -8.56873950E-09
  0.119999997      -9.12206488E-09
  0.239999995      -9.75034897E-09
  0.360000014      -1.04822497E-08
  0.479999989      -1.13342029E-08
  0.600000024      -1.23045512E-08
  0.720000029      -1.33732341E-08
  0.839999974      -1.45079868E-08
  0.959999979      -1.56756492E-08
   1.08000004      -1.68550915E-08
   1.20000005      -1.80472810E-08
   1.32000005      -1.92784633E-08
   1.44000006      -2.05946780E-08
   1.55999994      -2.20488641E-08
   1.67999995      -2.36846596E-08
   1.79999995      -2.55225832E-08
   1.91999996      -2.75538383E-08
   2.03999996      -2.97444309E-08
   2.16000009      -3.20485860E-08
   2.27999997      -3.44269218E-08
   2.40000010      -3.68628861E-08
   2.51999998      -3.93714288E-08
   2.64000010      -4.19967350E-08
   2.75999999      -4.47998652E-08
   2.88000011      -4.78411550E-08
   3.00000000      -5.11639939E-08
   3.11999989      -5.47861880E-08
   3.24000001      -5.87016835E-08
   3.35999990      -6.28913668E-08
   3.48000002      -6.73380143E-08
   3.59999990      -7.20387234E-08
   3.72000003      -7.70099646E-08
   3.83999991      -8.22832860E-08
   3.96000004      -8.78942217E-08
   4.07999992      -9.38701845E-08
   4.19999981      -1.00223041E-07
   4.32000017      -1.06950615E-07
   4.44000006      -1.14046657E-07
   4.55999994      -1.21515356E-07
   4.67999983      -1.29383906E-07
   4.80000019      -1.37706934E-07
   4.92000008      -1.46560438E-07
   5.03999996      -1.56026530E-07
   5.15999985      -1.66174530E-07
   5.28000021      -1.77046090E-07
   5.40000010      -1.88649608E-07
   5.51999998      -2.00966667E-07
   5.63999987      -2.13968065E-07
   5.76000023      -2.27633222E-07
   5.88000011      -2.41966433E-07
   6.00000000      -2.57004132E-07
   6.11999989      -2.72812031E-07
   6.23999977      -2.89473604E-07
   6.36000013      -3.07076164E-07
   6.48000002      -3.25698863E-07
   6.59999990      -3.45408353E-07
   6.71999979      -3.66261077E-07
   6.84000015      -3.88310781E-07
   6.96000004      -4.11616298E-07
   7.07999992      -4.36245699E-07
   7.19999981      -4.62274556E-07
   7.32000017      -4.89779609E-07
   7.44000006      -5.18829893E-07
   7.55999994      -5.49481854E-07
   7.67999983      -5.81779034E-07
   7.80000019      -6.15758836E-07
   7.92000008      -6.51464518E-07
   8.03999996      -6.88956959E-07
   8.15999985      -7.28323357E-07
   8.27999973      -7.69678479E-07
   8.39999962      -8.13158977E-07
   8.52000046      -8.58911278E-07
   8.64000034      -9.07078402E-07
   8.76000023      -9.57788302E-07
   8.88000011      -1.01114745E-06
   9.00000000      -1.06724042E-06
   9.11999989      -1.12613520E-06
   9.23999977      -1.18789080E-06
   9.35999966      -1.25256713E-06
   9.47999954      -1.32023342E-06
   9.60000038      -1.39097540E-06
   9.72000027      -1.46489947E-06
   9.84000015      -1.54213694E-06
   9.96000004      -1.62284402E-06
   10.0799999      -1.70720148E-06
   10.1999998      -1.79541018E-06
   10.3199997      -1.88768536E-06
   10.4399996      -1.98424823E-06
   10.5600004      -2.08531810E-06
   10.6800003      -2.19110484E-06
   10.8000002      -2.30180467E-06
   10.9200001      -2.41759744E-06
   11.0400000      -2.53864869E-06
   11.1599998      -2.66511165E-06
   11.2799997      -2.79713640E-06
   11.3999996      -2.93487824E-06
   11.5200005      -3.07850837E-06
   11.6400003      -3.22822507E-06
   11.7600002      -3.38426230E-06
   11.8800001      -3.54689291E-06
   12.0000000      -3.71642477E-06
   12.1199999      -3.89318802E-06
   12.2399998      -4.07751577E-06
   12.3599997      -4.26972383E-06
   12.4799995      -4.47009188E-06
   12.6000004      -4.67885593E-06
   12.7200003      -4.89621334E-06
   12.8400002      -5.12234010E-06
   12.9600000      -5.35741810E-06
   13.0799999      -5.60166245E-06
   13.1999998      -5.85534463E-06
   13.3199997      -6.11879841E-06
   13.4399996      -6.39241807E-06
   13.5600004      -6.67663608E-06
   13.6800003      -6.97189625E-06
   13.8000002      -7.27862243E-06
   13.9200001      -7.59719751E-06
   14.0400000      -7.92795163E-06
   14.1599998      -8.27116401E-06
   14.2799997      -8.62708202E-06
   14.3999996      -8.99594397E-06
   14.5200005      -9.37800723E-06
   14.6400003      -9.77357104E-06
   14.7600002      -1.01829892E-05
   14.8800001      -1.06066736E-05
   15.0000000      -1.10450828E-05
   15.1199999      -1.14987060E-05
   15.2399998      -1.19680371E-05
   15.3599997      -1.24535572E-05
   15.4799995      -1.29557220E-05
   15.6000004      -1.34749580E-05
   15.7200003      -1.40116699E-05
   15.8400002      -1.45662498E-05
   15.9600000      -1.51390987E-05
   16.0799999      -1.57306349E-05
   16.2000008      -1.63412951E-05
   16.3199997      -1.69715386E-05
   16.4400005      -1.76218364E-05
   16.5599995      -1.82926578E-05
   16.6800003      -1.89844632E-05
   16.7999992      -1.96977162E-05
   16.9200001      -2.04328699E-05
   17.0400009      -2.11903916E-05
   17.1599998      -2.19707727E-05
   17.2800007      -2.27745350E-05
   17.3999996      -2.36022352E-05
   17.5200005      -2.44544408E-05
   17.6399994      -2.53317285E-05
   17.7600002      -2.62346402E-05
   17.8799992      -2.71636800E-05
   18.0000000      -2.81192897E-05
   18.1200008      -2.91018641E-05
   18.2399998      -3.01117561E-05
   18.3600006      -3.11493095E-05
   18.4799995      -3.22148735E-05
   18.6000004      -3.33088101E-05
   18.7199993      -3.44315413E-05
   18.8400002      -3.55835073E-05
   18.9599991      -3.67651883E-05
   19.0799999      -3.79770900E-05
   19.2000008      -3.92197035E-05
   19.3199997      -4.04935090E-05
   19.4400005      -4.17989650E-05
   19.5599995      -4.31364824E-05
   19.6800003      -4.45064470E-05
   19.7999992      -4.59091825E-05
   19.9200001      -4.73449982E-05
   20.0400009      -4.88141850E-05
   20.1599998      -5.03170268E-05
   20.2800007      -5.18538400E-05
   20.3999996      -5.34249375E-05
   20.5200005      -5.50306650E-05
   20.6399994      -5.66713388E-05
   20.7600002      -5.83472502E-05
   20.8799992      -6.00586391E-05
   21.0000000      -6.18056656E-05
   21.1200008      -6.35884280E-05
   21.2399998      -6.54069736E-05
   21.3600006      -6.72612878E-05
   21.4799995      -6.91513560E-05
   21.6000004      -7.10771419E-05
   21.7199993      -7.30386309E-05
   21.8400002      -7.50357649E-05
   21.9599991      -7.70684783E-05
   22.0799999      -7.91366765E-05
   22.2000008      -8.12401995E-05
   22.3199997      -8.33788290E-05
   22.4400005      -8.55523103E-05
   22.5599995      -8.77603234E-05
   22.6800003      -9.00025188E-05
   22.7999992      -9.22784748E-05
   22.9200001      -9.45877546E-05
   23.0400009      -9.69298853E-05
   23.1599998      -9.93043068E-05
   23.2800007      -1.01710422E-04
   23.3999996      -1.04147577E-04
   23.5200005      -1.06615029E-04
   23.6399994      -1.09111963E-04
   23.7600002      -1.11637550E-04
   23.8799992      -1.14190843E-04
   24.0000000      -1.16770905E-04
   24.1200008      -1.19376717E-04
   24.2399998      -1.22007201E-04
   24.3600006      -1.24661237E-04
   24.4799995      -1.27337596E-04
   24.6000004      -1.30034998E-04
   24.7199993      -1.32752015E-04
   24.8400002      -1.35487178E-04
   24.9599991      -1.38238844E-04
   25.0799999      -1.41005352E-04
   25.2000008      -1.43784899E-04
   25.3199997      -1.46575636E-04
   25.4400005      -1.49375628E-04
   25.5599995      -1.52182853E-04
   25.6800003      -1.54995272E-04
   25.7999992      -1.57810791E-04
   25.9200001      -1.60627256E-04
   26.0400009      -1.63442455E-04
   26.1599998      -1.66254089E-04
   26.2800007      -1.69059786E-04
   26.3999996      -1.71857027E-04
   26.5200005      -1.74643152E-04
   26.6399994      -1.77415350E-04
   26.7600002      -1.80170682E-04
   26.8799992      -1.82906108E-04
   27.0000000      -1.85618468E-04
   27.1200008      -1.88304592E-04
   27.2399998      -1.90961204E-04
   27.3600006      -1.93585031E-04
   27.4799995      -1.96172681E-04
   27.6000004      -1.98720765E-04
   27.7199993      -2.01225761E-04
   27.8400002      -2.03684147E-04
   27.9599991      -2.06092256E-04
   28.0799999      -2.08446349E-04
   28.2000008      -2.10742597E-04
   28.3199997      -2.12977131E-04
   28.4400005      -2.15145905E-04
   28.5599995      -2.17244815E-04
   28.6800003      -2.19269641E-04
   28.7999992      -2.21216091E-04
   28.9200001      -2.23079798E-04
   29.0400009      -2.24856340E-04
   29.1599998      -2.26541335E-04
   29.2800007      -2.28130302E-04
   29.3999996      -2.29618832E-04
   29.5200005      -2.31002428E-04
   29.6399994      -2.32276623E-04
   29.7600002      -2.33436862E-04
   29.8799992      -2.34478532E-04
   30.0000000      -2.35397019E-04
   30.1200008      -2.36187654E-04
   30.2399998      -2.36845764E-04
   30.3600006      -2.37366650E-04
   30.4799995      -2.37745538E-04
   30.6000004      -2.37977685E-04
   30.7199993      -2.38058361E-04
   30.8400002      -2.37982807E-04
   30.9599991      -2.37746281E-04
   31.0799999      -2.37344109E-04
   31.2000008      -2.36771666E-04
   31.3199997      -2.36024382E-04
   31.4400005      -2.35097847E-04
   31.5599995      -2.33987725E-04
   31.6800003      -2.32689723E-04
   31.7999992      -2.31199694E-04
   31.9200001      -2.29513520E-04
   32.0400009      -2.27627112E-04
   32.1599998      -2.25536467E-04
   32.2799988      -2.23237686E-04
   32.4000015      -2.20726972E-04
   32.5200005      -2.18000612E-04
   32.6399994      -2.15055043E-04
   32.7599983      -2.11886872E-04
   32.8800011      -2.08492842E-04
   33.0000000      -2.04869939E-04
   33.1199989      -2.01015268E-04
   33.2400017      -1.96926165E-04
   33.3600006      -1.92600128E-04
   33.4799995      -1.88034901E-04
   33.5999985      -1.83228360E-04
   33.7200012      -1.78178569E-04
   33.8400002      -1.72883840E-04
   33.9599991      -1.67342587E-04
   34.0800018      -1.61553515E-04
   34.2000008      -1.55515547E-04
   34.3199997      -1.49227897E-04
   34.4399986      -1.42690027E-04
   34.5600014      -1.35901748E-04
   34.6800003      -1.28863074E-04
   34.7999992      -1.21574369E-04
   34.9199982      -1.14036229E-04
   35.0400009      -1.06249514E-04
   35.1599998      -9.82153579E-05
   35.2799988      -8.99351653E-05
   35.4000015      -8.14106243E-05
   35.5200005      -7.26437574E-05
   35.6399994      -6.36369296E-05
   35.7599983      -5.43928800E-05
   35.8800011      -4.49146828E-05
   36.0000000      -3.52057941E-05
   36.1199989      -2.52699883E-05
   36.2400017      -1.51113509E-05
   36.3600006      -4.73424734E-06
   36.4799995       5.85663520E-06
   36.5999985       1.66562822E-05
   36.7200012       2.76593419E-05
   36.8400002       3.88601220E-05
   36.9599991       5.02525909E-05
   37.0800018       6.18303893E-05
   37.2000008       7.35868962E-05
   37.3199997       8.55152030E-05
   37.4399986       9.76081064E-05
   37.5600014       1.09858105E-04
   37.6800003       1.22257319E-04
   37.7999992       1.34797505E-04
   37.9199982       1.47470011E-04
   38.0400009       1.60265830E-04
   38.1599998       1.73175664E-04
   38.2799988       1.86189965E-04
   38.4000015       1.99298986E-04
   38.5200005       2.12492814E-04
   38.6399994       2.25761309E-04
   38.7599983       2.39094123E-04
   38.8800011       2.52480619E-04
   39.0000000       2.65909825E-04
   39.1199989       2.79370637E-04
   39.2400017       2.92851531E-04
   39.3600006       3.06341011E-04
   39.4799995       3.19827261E-04
   39.5999985       3.33298376E-04
   39.7200012       3.46742425E-04
   39.8400002       3.60147242E-04
   39.9599991       3.73500603E-04
   40.0800018       3.86790140E-04
   40.2000008       4.00003424E-04
   40.3199997       4.13127913E-04
   40.4399986       4.26150975E-04
   40.5600014       4.39060008E-04
   40.6800003       4.51842381E-04
   40.7999992       4.64485405E-04
   40.9199982       4.76976507E-04
   41.0400009       4.89303027E-04
   41.1599998       5.01452480E-04
   41.2799988       5.13412408E-04
   41.4000015       5.25170355E-04
   41.5200005       5.36714215E-04
   41.6399994       5.48031880E-04
   41.7599983       5.59111359E-04
   41.8800011       5.69940952E-04
   42.0000000       5.80509077E-04
   42.1199989       5.90804382E-04
   42.2400017       6.00815692E-04
   42.3600006       6.10531948E-04
   42.4799995       6.19942439E-04
   42.5999985       6.29036746E-04
   42.7200012       6.37804565E-04
   42.8400002       6.46236294E-04
   42.9599991       6.54322619E-04
   43.0800018       6.62054459E-04
   43.2000008       6.69423374E-04
   43.3199997       6.76421216E-04
   43.4399986       6.83040067E-04
   43.5600014       6.89272420E-04
   43.6800003       6.95111114E-04
   43.7999992       7.00549514E-04
   43.9199982       7.05581449E-04
   44.0400009       7.10201100E-04
   44.1599998       7.14403286E-04
   44.2799988       7.18183408E-04
   44.4000015       7.21537159E-04
   44.5200005       7.24460988E-04
   44.6399994       7.26951752E-04
   44.7599983       7.29006599E-04
   44.8800011       7.30623316E-04
   45.0000000       7.31800217E-04
   45.1199989       7.32536311E-04
   45.2400017       7.32831191E-04
   45.3600006       7.32685090E-04
   45.4799995       7.32098648E-04
   45.5999985       7.31073262E-04
   45.7200012       7.29610561E-04
   45.8400002       7.27712817E-04
   45.9599991       7.25382764E-04
   46.0800018       7.22623605E-04
   46.2000008       7.19439297E-04
   46.3199997       7.15834380E-04
   46.4399986       7.11813685E-04
   46.5600014       7.07383093E-04
   46.6800003       7.02548481E-04
   46.7999992       6.97316485E-04
   46.9199982       6.91694149E-04
   47.0400009       6.85689156E-04
   47.1599998       6.79309363E-04
   47.2799988       6.72563561E-04
   47.4000015       6.65460713E-04
   47.5200005       6.58010482E-04
   47.6399994       6.50222704E-04
   47.7599983       6.42107683E-04
   47.8800011       6.33675954E-04
   48.0000000       6.24938519E-04
   48.1199989       6.15906436E-04
   48.2400017       6.06591464E-04
   48.3600006       5.97005535E-04
   48.4799995       5.87161107E-04
   48.5999985       5.77070983E-04
   48.7200012       5.66748146E-04
   48.8400002       5.56205923E-04
   48.9599991       5.45457646E-04
   49.0800018       5.34516934E-04
   49.2000008       5.23397292E-04
   49.3199997       5.12112398E-04
   49.4399986       5.00676048E-04
   49.5600014       4.89102269E-04
   49.6800003       4.77405236E-04
   49.7999992       4.65599209E-04
   49.9199982       4.53698594E-04
   50.0400009       4.41717712E-04
   50.1599998       4.29670850E-04
   50.2799988       4.17572272E-04
   50.4000015       4.05436091E-04
   50.5200005       3.93276423E-04
   50.6399994       3.81107180E-04
   50.7599983       3.68942157E-04
   50.8800011       3.56795004E-04
   51.0000000       3.44679196E-04
   51.1199989       3.32607859E-04
   51.2400017       3.20593972E-04
   51.3600006       3.08650226E-04
   51.4799995       2.96789192E-04
   51.5999985       2.85023183E-04
   51.7200012       2.73364276E-04
   51.8400002       2.61824316E-04
   51.9599991       2.50414800E-04
   52.0800018       2.39146961E-04
   52.2000008       2.28031495E-04
   52.3199997       2.17078792E-04
   52.4399986       2.06298791E-04
   52.5600014       1.95701097E-04
   52.6800003       1.85294892E-04
   52.7999992       1.75088921E-04
   52.9199982       1.65091493E-04
   53.0400009       1.55310379E-04
   53.1599998       1.45752900E-04
   53.2799988       1.36425850E-04
   53.4000015       1.27335588E-04
   53.5200005       1.18488082E-04
   53.6399994       1.09888897E-04
   53.7599983       1.01543199E-04
   53.8800011       9.34557611E-05
   54.0000000       8.56309052E-05
   54.1199989       7.80724731E-05
   54.2400017       7.07837607E-05
   54.3600006       6.37675621E-05
   54.4799995       5.70261291E-05
   54.5999985       5.05611970E-05
   54.7200012       4.43740319E-05
   54.8400002       3.84653904E-05
   54.9599991       3.28355927E-05
   55.0800018       2.74845061E-05
   55.2000008       2.24115793E-05
   55.3199997       1.76158574E-05
   55.4399986       1.30960070E-05
   55.5600014       8.85031113E-06
   55.6800003       4.87669422E-06
   55.7999992       1.17270702E-06
   55.9199982      -2.26446809E-06
   56.0400009      -5.43801752E-06
   56.1599998      -8.35150331E-06
   56.2799988      -1.10088504E-05
   56.4000015      -1.34143247E-05
   56.5200005      -1.55725302E-05
   56.6399994      -1.74883862E-05
   56.7599983      -1.91671043E-05
   56.8800011      -2.06141667E-05
   57.0000000      -2.18353143E-05
   57.1199989      -2.28365188E-05
   57.2400017      -2.36239448E-05
   57.3600006      -2.42039478E-05
   57.4799995      -2.45830488E-05
   57.5999985      -2.47679436E-05
   57.7200012      -2.47654916E-05
   57.8400002      -2.45826977E-05
   57.9599991      -2.42267088E-05
   58.0800018      -2.37047752E-05
   58.2000008      -2.30242331E-05
   58.3199997      -2.21924874E-05
   58.4399986      -2.12169980E-05
   58.5600014      -2.01052753E-05
   58.6800003      -1.88648755E-05
   58.7999992      -1.75033983E-05
   58.9199982      -1.60284617E-05
   59.0400009      -1.44476753E-05
   59.1599998      -1.27686144E-05
   59.2799988      -1.09987723E-05
   59.4000015      -9.14555039E-06
   59.5200005      -7.21624929E-06
   59.6399994      -5.21807669E-06
   59.7599983      -3.15815964E-06
   59.8800011      -1.04354831E-06
   60.0000000       1.11878876E-06
   60.1199989       3.32198533E-06
   60.2400017       5.55930228E-06
   60.3600006       7.82415464E-06
   60.4799995       1.01101223E-05
   60.5999985       1.24109556E-05
   60.7200012       1.47205756E-05
   60.8400002       1.70330604E-05
   60.9599991       1.93426567E-05
   61.0800018       2.16437784E-05
   61.2000008       2.39310430E-05
   61.3199997       2.61992845E-05
   61.4399986       2.84435646E-05
   61.5600014       3.06591828E-05
   61.6800003       3.28416645E-05
   61.7999992       3.49867478E-05
   61.9199982       3.70903799E-05
   62.0400009       3.91487156E-05
   62.1599998       4.11581168E-05
   62.2799988       4.31151529E-05
   62.4000015       4.50166226E-05
   62.5200005       4.68595317E-05
   62.6399994       4.86411009E-05
   62.7599983       5.03587471E-05
   62.8800011       5.20100948E-05
   63.0000000       5.35929612E-05
   63.1199989       5.51054036E-05
   63.2400017       5.65457049E-05
   63.3600006       5.79123807E-05
   63.4799995       5.92041870E-05
   63.5999985       6.04200868E-05
   63.7200012       6.15592216E-05
   63.8400002       6.26209148E-05
   63.9599991       6.36046461E-05
   64.0800018       6.45100736E-05
   64.1999969       6.53370225E-05
   64.3199997       6.60855221E-05
   64.4400024       6.67557688E-05
   64.5599976       6.73480972E-05
   64.6800003       6.78630022E-05
   64.8000031       6.83010658E-05
   64.9199982       6.86629573E-05
   65.0400009       6.89494555E-05
   65.1600037       6.91614405E-05
   65.2799988       6.92999893E-05
   65.4000015       6.93663242E-05
   65.5199966       6.93618786E-05
   65.6399994       6.92882604E-05
   65.7600021       6.91472014E-05
   65.8799973       6.89405206E-05
   66.0000000       6.86700732E-05
   66.1200027       6.83377002E-05
   66.2399979       6.79452423E-05
   66.3600006       6.74945259E-05
   66.4800034       6.69874207E-05
   66.5999985       6.64258332E-05
   66.7200012       6.58117497E-05
   66.8399963       6.51472219E-05
   66.9599991       6.44343818E-05
   67.0800018       6.36754266E-05
   67.1999969       6.28725757E-05
   67.3199997       6.20280916E-05
   67.4400024       6.11442301E-05
   67.5599976       6.02232940E-05
   67.6800003       5.92675933E-05
   67.8000031       5.82794491E-05
   67.9199982       5.72611680E-05
   68.0400009       5.62150126E-05
   68.1600037       5.51431876E-05
   68.2799988       5.40478031E-05
   68.4000015       5.29309109E-05
   68.5199966       5.17945009E-05
   68.6399994       5.06405377E-05
   68.7600021       4.94709930E-05
   68.8799973       4.82878422E-05
   69.0000000       4.70930754E-05
   69.1200027       4.58886643E-05
   69.2399979       4.46765443E-05
   69.3600006       4.34585891E-05
   69.4800034       4.22366029E-05
   69.5999985       4.10123248E-05
   69.7200012       3.97874428E-05
   69.8399963       3.85635758E-05
   69.9599991       3.73422990E-05
   70.0800018       3.61250895E-05
   70.1999969       3.49133588E-05
   70.3199997       3.37084202E-05
   70.4400024       3.25115070E-05
   70.5599976       3.13237942E-05
   70.6800003       3.01464115E-05
   70.8000031       2.89804757E-05
   70.9199982       2.78270873E-05
   71.0400009       2.66873285E-05
   71.1600037       2.55622253E-05
   71.2799988       2.44527273E-05
   71.4000015       2.33596675E-05
   71.5199966       2.22837789E-05
   71.6399994       2.12256946E-05
   71.7600021       2.01859912E-05
   71.8799973       1.91652216E-05
   72.0000000       1.81639389E-05
   72.1200027       1.71826723E-05
   72.2399979       1.62219148E-05
   72.3600006       1.52820721E-05
   72.4800034       1.43634379E-05
   72.5999985       1.34661832E-05
   72.7200012       1.25903889E-05