  -30.0000000       0.00000000    
  -29.8799992       0.00000000    
  -29.7600002       0.00000000    
  -29.6399994       0.00000000    
  -29.5200005       0.00000000    
  -29.3999996       0.00000000    
  -29.2800007       0.00000000    
  -29.1599998       0.00000000    
  -29.0400009       0.00000000    
  -28.9200001       0.00000000    
  -28.7999992       0.00000000    
  -28.6800003      -8.54792063E-44
  -28.5599995       3.14591505E-42
  -28.4400005       6.08836157E-41
  -28.3199997       4.64589295E-40
  -28.2000008       1.79396752E-39
  -28.0799999       1.57375206E-39
  -27.9599991      -2.36186054E-38
  -27.8400002      -1.63164985E-37
  -27.7199993      -5.93222598E-37
  -27.6000004      -1.28565820E-36
  -27.4799995      -7.62794510E-37
  -27.3600006       6.40540461E-36
  -27.2399998       3.05751533E-35
  -27.1200008       7.62858640E-35
  -27.0000000       1.03799411E-34
  -26.8799992      -3.38399999E-35
  -26.7600002      -5.94158028E-34
  -26.6399994      -1.66665685E-33
  -26.5200005      -2.35648634E-33
  -26.3999996       3.46592787E-34
  -26.2800007       1.13685409E-32
  -26.1599998       3.24134162E-32
  -26.0400009       4.83646483E-32
  -25.9200001       8.99898084E-33
  -25.7999992      -1.71382997E-31
  -25.6800003      -5.49562041E-31
  -25.5599995      -9.76860256E-31
  -25.4400005      -8.39637183E-31
  -25.3199997       1.05674563E-30
  -25.2000008       5.96729005E-30
  -25.0799999       1.34725119E-29
  -24.9599991       1.85187989E-29
  -24.8400002       8.87793895E-30
  -24.7199993      -3.28147196E-29
  -24.6000004      -1.16621715E-28
  -24.4799995      -2.19337782E-28
  -24.3600006      -2.52832929E-28
  -24.2399998      -5.41230731E-29
  -24.1200008       5.56173420E-28
  -24.0000000       1.60334958E-27
  -23.8799992       2.68718958E-27
  -23.7600002       2.74329962E-27
  -23.6399994       1.29166356E-28
  -23.5200005      -6.59069020E-27
  -23.3999996      -1.69618515E-26
  -23.2800007      -2.64582931E-26
  -23.1599998      -2.51847727E-26
  -23.0400009       2.22684518E-28
  -22.9200001       5.92182906E-26
  -22.7999992       1.44307817E-25
  -22.6800003       2.16843663E-25
  -22.5599995       2.02248134E-25
  -22.4400005       9.18040961E-27
  -22.3199997      -4.16640240E-25
  -22.2000008      -1.00962649E-24
  -22.0799999      -1.50669583E-24
  -21.9599991      -1.43909873E-24
  -21.8400002      -2.68110600E-25
  -21.7199993       2.29688607E-24
  -21.6000004       5.85596417E-24
  -21.4799995       8.94982340E-24
  -21.3600006       9.08290265E-24
  -21.2399998       3.45775642E-24
  -21.1200008      -9.47334305E-24
  -21.0000000      -2.79821301E-23
  -20.8799992      -4.54697533E-23
  -20.7600002      -5.06110248E-23
  -20.6399994      -3.04222409E-23
  -20.5200005       2.34742870E-23
  -20.3999996       1.06769206E-22
  -20.2800007       1.95837597E-22
  -20.1599998       2.47046547E-22
  -20.0400009       2.06026626E-22
  -19.9200001       2.82260617E-23
  -19.7999992      -2.92619610E-22
  -19.6800003      -6.96849028E-22
  -19.5599995      -1.04493409E-21
  -19.4400005      -1.13098834E-21
  -19.3199997      -7.33767415E-22
  -19.2000008       2.93625868E-22
  -19.0799999       1.90796499E-21
  -18.9599991       3.76483622E-21
  -18.8400002       5.16321736E-21
  -18.7199993       5.11244632E-21
  -18.6000004       2.58703200E-21
  -18.4799995      -3.00229464E-21
  -18.3600006      -1.11824624E-20
  -18.2399998      -1.98386846E-20
  -18.1200008      -2.50358459E-20
  -18.0000000      -2.16703985E-20
  -17.8799992      -5.26202626E-21
  -17.7600002       2.52181584E-20
  -17.6399994       6.42741631E-20
  -17.5200005       9.81120993E-20
  -17.3999996       1.06115899E-19
  -17.2800007       6.70619104E-20
  -17.1599998      -3.01006598E-20
  -17.0400009      -1.73785606E-19
  -16.9200001      -3.21358608E-19
  -16.7999992      -4.01937348E-19
  -16.6800003      -3.35822120E-19
  -16.5599995      -7.01388995E-20
  -16.4400005       3.78780401E-19
  -16.3199997       8.94800870E-19
  -16.2000008       1.26569015E-18
  -16.0799999       1.23765079E-18
  -15.9600000       6.19215309E-19
  -15.8400002      -5.93396572E-19
  -15.7200003      -2.12227000E-18
  -15.6000004      -3.40740675E-18
  -15.4799995      -3.74393691E-18
  -15.3599997      -2.55172729E-18
  -15.2399998       2.96216298E-19
  -15.1199999       4.22096784E-18
  -15.0000000       7.91397855E-18
  -14.8800001       9.64650007E-18
  -14.7600002       7.89590300E-18
  -14.6400003       2.11414791E-18
  -14.5200005      -6.66902209E-18
  -14.3999996      -1.57477504E-17
  -14.2799997      -2.13667353E-17
  -14.1599998      -2.00278856E-17
  -14.0400000      -1.01008166E-17
  -13.9200001       6.89859780E-18
  -13.8000002       2.60387987E-17
  -13.6800003       4.01268723E-17
  -13.5600004       4.21690522E-17
  -13.4399996       2.83919554E-17
  -13.3199997       6.24436835E-19
  -13.1999998      -3.31809805E-17
  -13.0799999      -6.09698418E-17
  -12.9600000      -7.08430498E-17
  -12.8400002      -5.61477163E-17
  -12.7200003      -1.92882968E-17
  -12.6000004       2.77548411E-17
  -12.4799995       6.71459958E-17
  -12.3599997       8.23330318E-17
  -12.2399998       6.59748536E-17
  -12.1199999       2.50233368E-17
  -12.0000000      -2.01947560E-17
  -11.8800001      -4.39324391E-17
  -11.7600002      -2.78696571E-17
  -11.6400003       2.63074338E-17
  -11.5200005       9.11312359E-17
  -11.3999996       1.19538531E-16
  -11.2799997       6.38984847E-17
  -11.1599998      -9.72530672E-17
  -11.0400000      -3.35379810E-16
  -10.9200001      -5.63842993E-16
  -10.8000002      -6.55326045E-16
  -10.6800003      -4.86039205E-16
  -10.5600004       3.93160806E-18
  -10.4399996       7.55728407E-16
  -10.3199997       1.56875912E-15
  -10.1999998       2.13096591E-15
  -10.0799999       2.10757192E-15
  -9.96000004       1.27033756E-15
  -9.84000015      -3.73210102E-16
  -9.72000027      -2.50327946E-15
  -9.60000038      -4.51051312E-15
  -9.47999954      -5.63733842E-15
  -9.35999966      -5.21539023E-15
  -9.23999977      -2.93285476E-15
  -9.11999989       9.62106397E-16
  -9.00000000       5.61261056E-15
  -8.88000011       9.71039672E-15
  -8.76000023       1.18432943E-14
  -8.64000034       1.09429135E-14
  -8.52000046       6.69039011E-15
  -8.39999962      -2.68193236E-16
  -8.27999973      -8.39559830E-15
  -8.15999985      -1.56318541E-14
  -8.03999996      -1.99569551E-14
  -7.92000008      -1.99701756E-14
  -7.80000019      -1.52936135E-14
  -7.67999983      -6.66699633E-15
  -7.55999994       4.28489235E-15
  -7.44000006       1.55062374E-14
  -7.32000017       2.49990441E-14
  -7.19999981       3.11624641E-14
  -7.07999992       3.28882937E-14
  -6.96000004       2.94588471E-14
  -6.84000015       2.04177597E-14
  -6.71999979       5.62295326E-15
  -6.59999990      -1.43935089E-14
  -6.48000002      -3.78239005E-14
  -6.36000013      -6.10257965E-14
  -6.23999977      -7.84281697E-14
  -6.11999989      -8.32851515E-14
  -6.00000000      -6.94049039E-14
  -5.88000011      -3.35662454E-14
  -5.76000023       2.20945546E-14
  -5.63999987       8.87015816E-14
  -5.51999998       1.51160280E-13
  -5.40000010       1.91012814E-13
  -5.28000021       1.91291332E-13
  -5.15999985       1.42200542E-13
  -5.03999996       4.58714521E-14
  -4.92000008      -8.16379028E-14
  -4.80000019      -2.12335317E-13
  -4.67999983      -3.12381577E-13
  -4.55999994      -3.50996765E-13
  -4.44000006      -3.09761223E-13
  -4.32000017      -1.89408209E-13
  -4.19999981      -1.16655097E-14
  -4.07999992       1.84942800E-13
  -3.96000004       3.54549262E-13
  -3.83999991       4.56079456E-13
  -3.72000003       4.64444726E-13
  -3.59999990       3.77278585E-13
  -3.48000002       2.15039209E-13
  -3.35999990       1.44636077E-14
  -3.24000001      -1.82386577E-13
  -3.11999989      -3.39724993E-13
  -3.00000000      -4.36339658E-13
  -2.88000011      -4.67931087E-13
  -2.75999999      -4.43163111E-13
  -2.64000010      -3.75608480E-13
  -2.51999998      -2.75463544E-13
  -2.40000010      -1.45041192E-13
  -2.27999997       1.95266404E-14
  -2.16000009       2.20709058E-13
  -2.03999996       4.49332601E-13
  -1.91999996       6.76678060E-13
  -1.79999995       8.53746381E-13
  -1.67999995       9.20227653E-13
  -1.55999994       8.21986739E-13
  -1.44000006       5.32087991E-13
  -1.32000005       6.80219363E-14
  -1.20000005      -5.02024962E-13
  -1.08000004      -1.06809407E-12
 -0.959999979      -1.50196229E-12
 -0.839999974      -1.68949002E-12
 -0.720000029      -1.56249417E-12
 -0.600000024      -1.12024181E-12
 -0.479999989      -4.33434511E-13
 -0.360000014       3.71102725E-13
 -0.239999995       1.14071101E-12
 -0.119999997       1.73309338E-12
  -1.11022302E-15   2.04765263E-12
  0.119999997       2.04319569E-12
  0.239999995       1.73820593E-12
  0.360000014       1.19601030E-12
  0.479999989       5.02177022E-13
  0.600000024      -2.56501228E-13
  0.720000029      -1.00386409E-12
  0.839999974      -1.67435933E-12
  0.959999979      -2.20443520E-12
   1.08000004      -2.52332812E-12
   1.20000005      -2.55245846E-12
   1.32000005      -2.21955375E-12
   1.44000006      -1.48702871E-12
   1.55999994      -3.86378240E-13
   1.67999995       9.55483847E-13
   1.79999995       2.31312690E-12
   1.91999996       3.39299791E-12
   2.03999996       3.89737244E-12
   2.16000009       3.60934590E-12
   2.27999997       2.47561303E-12
   2.40000010       6.59114419E-13
   2.51999998      -1.46228906E-12
   2.64000010      -3.36198907E-12
   2.75999999      -4.48767152E-12
   2.88000011      -4.41382434E-12
   3.00000000      -2.98265210E-12
   3.11999989      -3.89682834E-13
   3.24000001       2.81895037E-12
   3.35999990       5.84823249E-12
   3.48000002       7.83735663E-12
   3.59999990       8.08054405E-12
   3.72000003       6.22668974E-12
   3.83999991       2.40021284E-12
   3.96000004      -2.79545462E-12
   4.07999992      -8.39824391E-12
   4.19999981      -1.33021250E-11
   4.32000017      -1.65078316E-11
   4.44000006      -1.73397685E-11
   4.55999994      -1.55692577E-11
   4.67999983      -1.14138594E-11
   4.80000019      -5.42228632E-12
   4.92000008       1.70833974E-12
   5.03999996       9.31478419E-12
   5.15999985       1.68835831E-11
   5.28000021       2.40605851E-11
   5.40000010       3.05553048E-11
   5.51999998       3.59831817E-11
   5.63999987       3.97158174E-11
   5.76000023       4.08108443E-11
   5.88000011       3.80669732E-11
   6.00000000       3.02044292E-11
   6.11999989       1.61223569E-11
   6.23999977      -4.84929588E-12
   6.36000013      -3.27918526E-11
   6.48000002      -6.71962902E-11
   6.59999990      -1.07130117E-10
   6.71999979      -1.51527971E-10
   6.84000015      -1.99517292E-10
   6.96000004      -2.50676369E-10
   7.07999992      -3.05143522E-10
   7.19999981      -3.63545943E-10
   7.32000017      -4.26778141E-10
   7.44000006      -4.95710750E-10
   7.55999994      -5.70931080E-10
   7.67999983      -6.52603915E-10
   7.80000019      -7.40493389E-10
   7.92000008      -8.34129543E-10
   8.03999996      -9.33053079E-10
   8.15999985      -1.03704534E-09
   8.27999973      -1.14626919E-09
   8.39999962      -1.26128052E-09
   8.52000046      -1.38293155E-09
   8.64000034      -1.51222568E-09
   8.76000023      -1.65020186E-09
   8.88000011      -1.79790594E-09
   9.00000000      -1.95645833E-09
   9.11999989      -2.12718176E-09
   9.23999977      -2.31170105E-09
   9.35999966      -2.51194177E-09
   9.47999954      -2.72997647E-09
   9.60000038      -2.96774050E-09
   9.72000027      -3.22670202E-09
   9.84000015      -3.50761509E-09
   9.96000004      -3.81046794E-09
   10.0799999      -4.13470547E-09
   10.1999998      -4.47969128E-09
   10.3199997      -4.84530638E-09
   10.4399996      -5.23249311E-09
   10.5600004      -5.64358738E-09
   10.6800003      -6.08229911E-09
   10.8000002      -6.55333565E-09
   10.9200001      -7.06177650E-09
   11.0400000      -7.61237828E-09
   11.1599998      -8.20902990E-09
   11.2799997      -8.85451623E-09
   11.3999996      -9.55064205E-09
   11.5200005      -1.02986562E-08
   11.6400003      -1.10997762E-08
   11.7600002      -1.19556454E-08
   11.8800001      -1.28685258E-08
   12.0000000      -1.38411975E-08
   12.1199999      -1.48766466E-08
   12.2399998      -1.59777205E-08
   12.3599997      -1.71470020E-08
   12.4799995      -1.83870217E-08
   12.6000004      -1.97008578E-08
   12.7200003      -2.10929940E-08
   12.8400002      -2.25700862E-08
   12.9600000      -2.41414071E-08
   13.0799999      -2.58186699E-08
   13.1999998      -2.76151688E-08
   13.3199997      -2.95444327E-08
   13.4399996      -3.16187077E-08
   13.5600004      -3.38477300E-08
   13.6800003      -3.62381982E-08
   13.8000002      -3.87941199E-08
   13.9200001      -4.15179287E-08
   14.0400000      -4.44121362E-08
   14.1599998      -4.74809170E-08
   14.2799997      -5.07312272E-08
   14.3999996      -5.41731353E-08
   14.5200005      -5.78192783E-08
   14.6400003      -6.16837852E-08
   14.7600002      -6.57810233E-08
   14.8800001      -7.01247131E-08
   15.0000000      -7.47277227E-08
   15.1199999      -7.96026498E-08
   15.2399998      -8.47629096E-08
   15.3599997      -9.02239634E-08
   15.4799995      -9.60041149E-08
   15.6000004      -1.02124595E-07
   15.7200003      -1.08608688E-07
   15.8400002      -1.15480297E-07
   15.9600000      -1.22762259E-07
   16.0799999      -1.30475001E-07
   16.2000008      -1.38636111E-07
   16.3199997      -1.47260749E-07
   16.4400005      -1.56363157E-07
   16.5599995      -1.65958539E-07
   16.6800003      -1.76064930E-07
   16.7999992      -1.86704526E-07
   16.9200001      -1.97904058E-07
   17.0400009      -2.09694264E-07
   17.1599998      -2.22108596E-07
   17.2800007      -2.35181858E-07
   17.3999996      -2.48948794E-07
   17.5200005      -2.63443269E-07
   17.6399994      -2.78698337E-07
   17.7600002      -2.94746457E-07
   17.8799992      -3.11620227E-07
   18.0000000      -3.29352957E-07
   18.1200008      -3.47979039E-07
   18.2399998      -3.67534113E-07
   18.3600006      -3.88054787E-07
   18.4799995      -4.09578746E-07
   18.6000004      -4.32144788E-07
   18.7199993      -4.55793298E-07
   18.8400002      -4.80567223E-07
   18.9599991      -5.06512492E-07
   19.0799999      -5.33678701E-07
   19.2000008      -5.62118657E-07
   19.3199997      -5.91887783E-07
   19.4400005      -6.23042752E-07
   19.5599995      -6.55639951E-07
   19.6800003      -6.89733952E-07
   19.7999992      -7.25376822E-07
   19.9200001      -7.62618583E-07
   20.0400009      -8.01507554E-07
   20.1599998      -8.42092277E-07
   20.2800007      -8.84422889E-07
   20.3999996      -9.28552652E-07
   20.5200005      -9.74538239E-07
   20.6399994      -1.02244019E-06
   20.7600002      -1.07232233E-06
   20.8799992      -1.12425118E-06
   21.0000000      -1.17829575E-06
   21.1200008      -1.23452674E-06
   21.2399998      -1.29301714E-06
   21.3600006      -1.35384164E-06
   21.4799995      -1.41707631E-06
   21.6000004      -1.48279719E-06
   21.7199993      -1.55107955E-06
   21.8400002      -1.62199569E-06
   21.9599991      -1.69561406E-06
   22.0799999      -1.77199865E-06
   22.2000008      -1.85121087E-06
   22.3199997      -1.93331084E-06
   22.4400005      -2.01836042E-06
   22.5599995      -2.10642543E-06
   22.6800003      -2.19757726E-06
   22.7999992      -2.29189300E-06
   22.9200001      -2.38945381E-06
   23.0400009      -2.49034133E-06
   23.1599998      -2.59463695E-06
   23.2800007      -2.70241708E-06
   23.3999996      -2.81375355E-06
   23.5200005      -2.92871437E-06
   23.6399994      -3.04736409E-06
   23.7600002      -3.16976684E-06
   23.8799992      -3.29598765E-06
   24.0000000      -3.42609223E-06
   24.1200008      -3.56014607E-06
   24.2399998      -3.69821328E-06
   24.3600006      -3.84035457E-06
   24.4799995      -3.98662542E-06
   24.6000004      -4.13707994E-06
   24.7199993      -4.29176816E-06
   24.8400002      -4.45074238E-06
   24.9599991      -4.61405671E-06
   25.0799999      -4.78176935E-06
   25.2000008      -4.95394033E-06
   25.3199997      -5.13062969E-06
   25.4400005      -5.31189153E-06
   25.5599995      -5.49777224E-06
   25.6800003      -5.68830865E-06
   25.7999992      -5.88352395E-06
   25.9200001      -6.08342998E-06
   26.0400009      -6.28803355E-06
   26.1599998      -6.49733465E-06
   26.2800007      -6.71133466E-06
   26.3999996      -6.93003267E-06
   26.5200005      -7.15342912E-06
   26.6399994      -7.38152357E-06
   26.7600002      -7.61431193E-06
   26.8799992      -7.85178781E-06
   27.0000000      -8.09393714E-06
   27.1200008      -8.34074581E-06
   27.2399998      -8.59218926E-06
   27.3600006      -8.84824385E-06
   27.4799995      -9.10887502E-06
   27.6000004      -9.37404729E-06
   27.7199993      -9.64371702E-06
   27.8400002      -9.91782963E-06
   27.9599991      -1.01963196E-05
   28.0799999      -1.04791116E-05
   28.2000008      -1.07661199E-05
   28.3199997      -1.10572491E-05
   28.4400005      -1.13523938E-05
   28.5599995      -1.16514439E-05
   28.6800003      -1.19542856E-05
   28.7999992      -1.22607953E-05
   28.9200001      -1.25708466E-05
   29.0400009      -1.28843067E-05
   29.1599998      -1.32010327E-05
   29.2800007      -1.35208784E-05
   29.3999996      -1.38436890E-05
   29.5200005      -1.41693072E-05
   29.6399994      -1.44975693E-05
   29.7600002      -1.48283098E-05
   29.8799992      -1.51613485E-05
   30.0000000      -1.54965037E-05
   30.1200008      -1.58335752E-05
   30.2399998      -1.61723565E-05
   30.3600006      -1.65126221E-05
   30.4799995      -1.68541355E-05
   30.6000004      -1.71966440E-05
   30.7199993      -1.75398909E-05
   30.8400002      -1.78836144E-05
   30.9599991      -1.82275508E-05
   31.0799999      -1.85714289E-05
   31.2000008      -1.89149814E-05
   31.3199997      -1.92579246E-05
   31.4400005      -1.95999710E-05
   31.5599995      -1.99408241E-05
   31.6800003      -2.02801730E-05
   31.7999992      -2.06177046E-05
   31.9200001      -2.09530972E-05
   32.0400009      -2.12860341E-05
   32.1599998      -2.16161916E-05
   32.2799988      -2.19432513E-05
   32.4000015      -2.22668841E-05
   32.5200005      -2.25867498E-05
   32.6399994      -2.29024972E-05
   32.7599983      -2.32137518E-05
   32.8800011      -2.35201278E-05
   33.0000000      -2.38212360E-05
   33.1199989      -2.41166854E-05
   33.2400017      -2.44060830E-05
   33.3600006      -2.46890540E-05
   33.4799995      -2.49652203E-05
   33.5999985      -2.52342106E-05
   33.7200012      -2.54956522E-05
   33.8400002      -2.57491538E-05
   33.9599991      -2.59943208E-05
   34.0800018      -2.62307367E-05
   34.2000008      -2.64579812E-05
   34.3199997      -2.66756251E-05
   34.4399986      -2.68832482E-05
   34.5600014      -2.70804303E-05
   34.6800003      -2.72667639E-05
   34.7999992      -2.74418471E-05
   34.9199982      -2.76052851E-05
   35.0400009      -2.77566814E-05
   35.1599998      -2.78956431E-05
   35.2799988      -2.80217682E-05
   35.4000015      -2.81346529E-05
   35.5200005      -2.82338824E-05
   35.6399994      -2.83190475E-05
   35.7599983      -2.83897280E-05
   35.8800011      -2.84455091E-05
   36.0000000      -2.84859743E-05
   36.1199989      -2.85107199E-05
   36.2400017      -2.85193400E-05
   36.3600006      -2.85114438E-05
   36.4799995      -2.84866546E-05
   36.5999985      -2.84445960E-05
   36.7200012      -2.83849058E-05
   36.8400002      -2.83072277E-05
   36.9599991      -2.82112069E-05
   37.0800018      -2.80964850E-05
   37.2000008      -2.79627111E-05
   37.3199997      -2.78095249E-05
   37.4399986      -2.76365736E-05
   37.5600014      -2.74435042E-05
   37.6800003      -2.72299731E-05
   37.7999992      -2.69956472E-05
   37.9199982      -2.67402065E-05
   38.0400009      -2.64633436E-05
   38.1599998      -2.61647619E-05
   38.2799988      -2.58441742E-05
   38.4000015      -2.55013019E-05
   38.5200005      -2.51358742E-05
   38.6399994      -2.47476200E-05
   38.7599983      -2.43362720E-05
   38.8800011      -2.39015662E-05
   39.0000000      -2.34432446E-05
   39.1199989      -2.29610541E-05
   39.2400017      -2.24547566E-05
   39.3600006      -2.19241210E-05
   39.4799995      -2.13689345E-05
   39.5999985      -2.07889916E-05
   39.7200012      -2.01840994E-05
   39.8400002      -1.95540688E-05
   39.9599991      -1.88987160E-05
   40.0800018      -1.82178592E-05
   40.2000008      -1.75113237E-05
   40.3199997      -1.67789549E-05
   40.4399986      -1.60206146E-05
   40.5600014      -1.52361827E-05
   40.6800003      -1.44255646E-05
   40.7999992      -1.35886867E-05
   40.9199982      -1.27254834E-05
   41.0400009      -1.18358967E-05
   41.1599998      -1.09198663E-05
   41.2799988      -9.97732423E-06
   41.4000015      -9.00820032E-06
   41.5200005      -8.01241913E-06
   41.6399994      -6.98991289E-06
   41.7599983      -5.94062249E-06
   41.8800011      -4.86450472E-06
   42.0000000      -3.76153594E-06
   42.1199989      -2.63170887E-06
   42.2400017      -1.47503363E-06
   42.3600006      -2.91530569E-07
   42.4799995       9.18772002E-07
   42.5999985       2.15583987E-06
   42.7200012       3.41963550E-06
   42.8400002       4.71011617E-06
   42.9599991       6.02723594E-06
   43.0800018       7.37094115E-06
   43.2000008       8.74116904E-06
   43.3199997       1.01378446E-05
   43.4399986       1.15608818E-05
   43.5600014       1.30101780E-05
   43.6800003       1.44856149E-05
   43.7999992       1.59870633E-05
   43.9199982       1.75143832E-05
   44.0400009       1.90674309E-05
   44.1599998       2.06460700E-05
   44.2799988       2.22501585E-05
   44.4000015       2.38795710E-05
   44.5200005       2.55341693E-05
   44.6399994       2.72138277E-05
   44.7599983       2.89184009E-05
   44.8800011       3.06477341E-05
   45.0000000       3.24016437E-05
   45.1199989       3.41799278E-05
   45.2400017       3.59823716E-05
   45.3600006       3.78087389E-05
   45.4799995       3.96587820E-05
   45.5999985       4.15322575E-05
   45.7200012       4.34289213E-05
   45.8400002       4.53485336E-05
   45.9599991       4.72908469E-05
   46.0800018       4.92556246E-05
   46.2000008       5.12426122E-05
   46.3199997       5.32515514E-05
   46.4399986       5.52821839E-05
   46.5600014       5.73342331E-05
   46.6800003       5.94074190E-05
   46.7999992       6.15014578E-05
   46.9199982       6.36160621E-05
   47.0400009       6.57509081E-05
   47.1599998       6.79057121E-05
   47.2799988       7.00801538E-05
   47.4000015       7.22739060E-05
   47.5200005       7.44866629E-05
   47.6399994       7.67180973E-05
   47.7599983       7.89678670E-05
   47.8800011       8.12356302E-05
   48.0000000       8.35210667E-05
   48.1199989       8.58238127E-05
   48.2400017       8.81435262E-05
   48.3600006       9.04798580E-05
   48.4799995       9.28324444E-05
   48.5999985       9.52009286E-05
   48.7200012       9.75849325E-05
   48.8400002       9.99840631E-05
   48.9599991       1.02397913E-04
   49.0800018       1.04826067E-04
   49.2000008       1.07268068E-04
   49.3199997       1.09723471E-04
   49.4399986       1.12191789E-04
   49.5600014       1.14672577E-04
   49.6800003       1.17165371E-04
   49.7999992       1.19669698E-04
   49.9199982       1.22185127E-04
   50.0400009       1.24711180E-04
   50.1599998       1.27247418E-04
   50.2799988       1.29793349E-04
   50.4000015       1.32348505E-04
   50.5200005       1.34912334E-04
   50.6399994       1.37484327E-04
   50.7599983       1.40063916E-04
   50.8800011       1.42650533E-04
   51.0000000       1.45243597E-04
   51.1199989       1.47842467E-04
   51.2400017       1.50446562E-04
   51.3600006       1.53055240E-04
   51.4799995       1.55667891E-04
   51.5999985       1.58283859E-04
   51.7200012       1.60902506E-04
   51.8400002       1.63523175E-04
   51.9599991       1.66145168E-04
   52.0800018       1.68767816E-04
   52.2000008       1.71390348E-04
   52.3199997       1.74012050E-04
   52.4399986       1.76632137E-04
   52.5600014       1.79249837E-04
   52.6800003       1.81864380E-04
   52.7999992       1.84474979E-04
   52.9199982       1.87080819E-04
   53.0400009       1.89681057E-04
   53.1599998       1.92274776E-04
   53.2799988       1.94861102E-04
   53.4000015       1.97439076E-04
   53.5200005       2.00007737E-04
   53.6399994       2.02566094E-04
   53.7599983       2.05113247E-04
   53.8800011       2.07648132E-04
   54.0000000       2.10169717E-04
   54.1199989       2.12676954E-04
   54.2400017       2.15168722E-04
   54.3600006       2.17643901E-04
   54.4799995       2.20101341E-04
   54.5999985       2.22539878E-04
   54.7200012       2.24958319E-04
   54.8400002       2.27355442E-04
   54.9599991       2.29730023E-04
   55.0800018       2.32080783E-04
   55.2000008       2.34406412E-04
   55.3199997       2.36705600E-04
   55.4399986       2.38976965E-04
   55.5600014       2.41219139E-04
   55.6800003       2.43430695E-04
   55.7999992       2.45610223E-04
   55.9199982       2.47756281E-04
   56.0400009       2.49867357E-04
   56.1599998       2.51941936E-04
   56.2799988       2.53978476E-04
   56.4000015       2.55975378E-04
   56.5200005       2.57930980E-04
   56.6399994       2.59843626E-04
   56.7599983       2.61711655E-04
   56.8800011       2.63533293E-04
   57.0000000       2.65306851E-04
   57.1199989       2.67030613E-04
   57.2400017       2.68702803E-04
   57.3600006       2.70321703E-04
   57.4799995       2.71885539E-04
   57.5999985       2.73392565E-04
   57.7200012       2.74840917E-04
   57.8400002       2.76228762E-04
   57.9599991       2.77554180E-04
   58.0800018       2.78815220E-04
   58.2000008       2.80010048E-04
   58.3199997       2.81136570E-04
   58.4399986       2.82192806E-04
   58.5600014       2.83176807E-04
   58.6800003       2.84086564E-04
   58.7999992       2.84920126E-04
   58.9199982       2.85675458E-04
   59.0400009       2.86350638E-04
   59.1599998       2.86943716E-04
   59.2799988       2.87452713E-04
   59.4000015       2.87875591E-04
   59.5200005       2.88210373E-04
   59.6399994       2.88454990E-04
   59.7599983       2.88607494E-04
   59.8800011       2.88665789E-04
   60.0000000       2.88627838E-04
   60.1199989       2.88491632E-04
   60.2400017       2.88255134E-04
   60.3600006       2.87916395E-04
   60.4799995       2.87473435E-04
   60.5999985       2.86924391E-04
   60.7200012       2.86267343E-04
   60.8400002       2.85500457E-04
   60.9599991       2.84621958E-04
   61.0800018       2.83629954E-04
   61.2000008       2.82522728E-04
   61.3199997       2.81298417E-04
   61.4399986       2.79955304E-04
   61.5600014       2.78491672E-04
   61.6800003       2.76905834E-04
   61.7999992       2.75196217E-04
   61.9199982       2.73361307E-04
   62.0400009       2.71399564E-04
   62.1599998       2.69309618E-04
   62.2799988       2.67090101E-04
   62.4000015       2.64739734E-04
   62.5200005       2.62257119E-04
   62.6399994       2.59641180E-04
   62.7599983       2.56890664E-04
   62.8800011       2.54004553E-04
   63.0000000       2.50981888E-04
   63.1199989       2.47821765E-04
   63.2400017       2.44523369E-04
   63.3600006       2.41085960E-04
   63.4799995       2.37508881E-04
   63.5999985       2.33791565E-04
   63.7200012       2.29933547E-04
   63.8400002       2.25934447E-04
   63.9599991       2.21794035E-04
   64.0800018       2.17512163E-04
   64.1999969       2.13088817E-04
   64.3199997       2.08524070E-04
   64.4400024       2.03818083E-04
   64.5599976       1.98971102E-04
   64.6800003       1.93983506E-04
   64.8000031       1.88855731E-04
   64.9199982       1.83588403E-04
   65.0400009       1.78182279E-04
   65.1600037       1.72638203E-04
   65.2799988       1.66957267E-04
   65.4000015       1.61140590E-04
   65.5199966       1.55189467E-04
   65.6399994       1.49105326E-04
   65.7600021       1.42889738E-04
   65.8799973       1.36544390E-04
   66.0000000       1.30071145E-04
   66.1200027       1.23471997E-04
   66.2399979       1.16749063E-04
   66.3600006       1.09904606E-04
   66.4800034       1.02941012E-04
   66.5999985       9.58607925E-05
   66.7200012       8.86665875E-05
   66.8399963       8.13612132E-05
   66.9599991       7.39476382E-05
   67.0800018       6.64289983E-05
   67.1999969       5.88085786E-05
   67.3199997       5.10898390E-05
   67.4400024       4.32763518E-05
   67.5599976       3.53718169E-05
   67.6800003       2.73800615E-05
   67.8000031       1.93050455E-05
   67.9199982       1.11508562E-05
   68.0400009       2.92173877E-06
   68.1600037      -5.37789720E-06
   68.2799988      -1.37434608E-05
   68.4000015      -2.21702048E-05
   68.5199966      -3.06532456E-05
   68.6399994      -3.91875583E-05
   68.7600021      -4.77680223E-05
   68.8799973      -5.63894173E-05
   69.0000000      -6.50464426E-05
   69.1200027      -7.37336813E-05
   69.2399979      -8.24456147E-05
   69.3600006      -9.11765965E-05
   69.4800034      -9.99208714E-05
   69.5999985      -1.08672590E-04
   69.7200012      -1.17425749E-04
   69.8399963      -1.26174244E-04
   69.9599991      -1.34911897E-04
   70.0800018      -1.43632453E-04
   70.1999969      -1.52329565E-04
   70.3199997      -1.60996904E-04
   70.4400024      -1.69628052E-04
   70.5599976      -1.78216549E-04
   70.6800003      -1.86755919E-04
   70.8000031      -1.95239583E-04
   70.9199982      -2.03661039E-04
   71.0400009      -2.12013590E-04
   71.1600037      -2.20290560E-04
   71.2799988      -2.28485267E-04
   71.4000015      -2.36590902E-04
   71.5199966      -2.44600727E-04
   71.6399994      -2.52508005E-04
   71.7600021      -2.60305969E-04
   71.8799973      -2.67987954E-04
   72.0000000      -2.75547325E-04
   72.1200027      -2.82977591E-04
   72.2399979      -2.90272263E-04
   72.3600006      -2.97424907E-04
   72.4800034      -3.04429152E-04
   72.5999985      -3.11278680E-04
   72.7200012      -3.17967264E-04