  -30.0000000       0.00000000    
  -29.8799992       0.00000000    
  -29.7600002       0.00000000    
  -29.6399994       0.00000000    
  -29.5200005       0.00000000    
  -29.3999996       0.00000000    
  -29.2800007       0.00000000    
  -29.1599998       0.00000000    
  -29.0400009       0.00000000    
  -28.9200001       3.53264966E-37
  -28.7999992       2.78466264E-36
  -28.6800003       4.98706671E-36
  -28.5599995      -3.99648794E-35
  -28.4400005      -3.30088411E-34
  -28.3199997      -1.29421946E-33
  -28.2000008      -3.25659432E-33
  -28.0799999      -5.16269111E-33
  -27.9599991      -2.62074059E-33
  -27.8400002       1.26428297E-32
  -27.7199993       4.90836953E-32
  -27.6000004       1.08939303E-31
  -27.4799995       1.89404619E-31
  -27.3600006       2.99086458E-31
  -27.2399998       4.55247709E-31
  -27.1200008       5.43561377E-31
  -27.0000000      -1.02306142E-31
  -26.8799992      -3.26212359E-30
  -26.7600002      -1.15656539E-29
  -26.6399994      -2.53427253E-29
  -26.5200005      -3.46705036E-29
  -26.3999996      -8.95189918E-30
  -26.2800007       1.03067260E-28
  -26.1599998       3.36718758E-28
  -26.0400009       6.12497193E-28
  -25.9200001       5.91800620E-28
  -25.7999992      -3.88369431E-28
  -25.6800003      -3.03667595E-27
  -25.5599995      -7.18458151E-27
  -25.4400005      -1.02371489E-26
  -25.3199997      -5.89189232E-27
  -25.2000008       1.47232907E-26
  -25.0799999       5.66661530E-26
  -24.9599991       1.08401272E-25
  -24.8400002       1.27183113E-25
  -24.7199993       3.63458972E-26
  -24.6000004      -2.44358935E-25
  -24.4799995      -7.19247332E-25
  -24.3600006      -1.20082852E-24
  -24.2399998      -1.22477312E-24
  -24.1200008      -1.20291489E-25
  -24.0000000       2.63174293E-24
  -23.8799992       6.72878236E-24
  -23.7600002       1.02972207E-23
  -23.6399994       9.63343290E-24
  -23.5200005       2.10867598E-25
  -23.3999996      -2.05118666E-23
  -23.2800007      -4.88813463E-23
  -23.1599998      -7.13727016E-23
  -23.0400009      -6.48468087E-23
  -22.9200001      -4.32168691E-24
  -22.7999992       1.20547362E-22
  -22.6800003       2.84437721E-22
  -22.5599995       4.11779385E-22
  -22.4400005       3.84217493E-22
  -22.3199997       8.30790503E-23
  -22.2000008      -5.33649029E-22
  -22.0799999      -1.34336817E-21
  -21.9599991      -2.00762955E-21
  -21.8400002      -2.01575292E-21
  -21.7199993      -8.62754125E-22
  -21.6000004       1.65349850E-21
  -21.4799995       5.11016107E-21
  -21.3600006       8.27829836E-21
  -21.2399998       9.26804178E-21
  -21.1200008       6.11373836E-21
  -21.0000000      -2.25679993E-21
  -20.8799992      -1.49512007E-20
  -20.7600002      -2.84162390E-20
  -20.6399994      -3.66465213E-20
  -20.5200005      -3.26568224E-20
  -20.3999996      -1.11685846E-20
  -20.2800007       2.80966758E-20
  -20.1599998       7.76557935E-20
  -20.0400009       1.21457721E-19
  -19.9200001       1.37298088E-19
  -19.7999992       1.03012246E-19
  -19.6800003       5.78058652E-21
  -19.5599995      -1.47654764E-19
  -19.4400005      -3.23512561E-19
  -19.3199997      -4.60683663E-19
  -19.2000008      -4.81555343E-19
  -19.0799999      -3.15458587E-19
  -18.9599991       6.82070580E-20
  -18.8400002       6.25911905E-19
  -18.7199993       1.21908173E-18
  -18.6000004       1.62253411E-18
  -18.4799995       1.57439912E-18
  -18.3600006       8.67734279E-19
  -18.2399998      -5.34582893E-19
  -18.1200008      -2.40015636E-18
  -18.0000000      -4.19384913E-18
  -17.8799992      -5.15800589E-18
  -17.7600002      -4.52529048E-18
  -17.6399994      -1.83349567E-18
  -17.5200005       2.74720888E-18
  -17.3999996       8.20954507E-18
  -17.2800007       1.27670712E-17
  -17.1599998       1.42607857E-17
  -17.0400009       1.08859905E-17
  -16.9200001       2.06264186E-18
  -16.7999992      -1.08582948E-17
  -16.6800003      -2.44095159E-17
  -16.5599995      -3.36155017E-17
  -16.4400005      -3.34342036E-17
  -16.3199997      -2.07376016E-17
  -16.2000008       3.79451115E-18
  -16.0799999       3.46761260E-17
  -15.9600000       6.22243572E-17
  -15.8400002       7.50568335E-17
  -15.7200003       6.40591695E-17
  -15.6000004       2.66522275E-17
  -15.4799995      -3.03082219E-17
  -15.3599997      -9.06072732E-17
  -15.2399998      -1.32557639E-16
  -15.1199999      -1.36161526E-16
  -15.0000000      -9.14590244E-17
  -14.8800001      -4.88039291E-18
  -14.7600002       9.95918112E-17
  -14.6400003       1.86244929E-16
  -14.5200005       2.19652491E-16
  -14.3999996       1.79171768E-16
  -14.2799997       7.01857257E-17
  -14.1599998      -7.35848756E-17
  -14.0400000      -1.99697546E-16
  -13.9200001      -2.56792993E-16
  -13.8000002      -2.17726934E-16
  -13.6800003      -9.59734320E-17
  -13.5600004       5.40081707E-17
  -13.4399996       1.56385271E-16
  -13.3199997       1.48854407E-16
  -13.1999998       1.94893943E-17
  -13.0799999      -1.72373375E-16
  -12.9600000      -3.06343891E-16
  -12.8400002      -2.46636539E-16
  -12.7200003       8.83426049E-17
  -12.6000004       6.58975275E-16
  -12.4799995       1.27341991E-15
  -12.3599997       1.61964696E-15
  -12.2399998       1.36706332E-15
  -12.1199999       3.14976878E-16
  -12.0000000      -1.46254987E-15
  -11.8800001      -3.53973544E-15
  -11.7600002      -5.18481488E-15
  -11.6400003      -5.54847238E-15
  -11.5200005      -3.96257725E-15
  -11.3999996      -2.63618305E-16
  -11.2799997       4.97806515E-15
  -11.1599998       1.04375228E-14
  -11.0400000       1.42876010E-14
  -10.9200001       1.47031825E-14
  -10.8000002       1.04976486E-14
  -10.6800003       1.69586944E-15
  -10.5600004      -1.01730114E-14
  -10.4399996      -2.22259311E-14
  -10.3199997      -3.08587791E-14
  -10.1999998      -3.27397953E-14
  -10.0799999      -2.58942224E-14
  -9.96000004      -1.05353272E-14
  -9.84000015       1.06679090E-14
  -9.72000027       3.30449609E-14
  -9.60000038       5.10307230E-14
  -9.47999954       5.96269318E-14
  -9.35999966       5.57749207E-14
  -9.23999977       3.92019689E-14
  -9.11999989       1.24726499E-14
  -9.00000000      -1.97428320E-14
  -8.88000011      -5.18821910E-14
  -8.76000023      -7.87107738E-14
  -8.64000034      -9.60972702E-14
  -8.52000046      -1.01131472E-13
  -8.39999962      -9.17297651E-14
  -8.27999973      -6.61994602E-14
  -8.15999985      -2.33519191E-14
  -8.03999996       3.64420882E-14
  -7.92000008       1.09352096E-13
  -7.80000019       1.86058552E-13
  -7.67999983       2.50782901E-13
  -7.55999994       2.82615050E-13
  -7.44000006       2.59838510E-13
  -7.32000017       1.66886456E-13
  -7.19999981       2.27148105E-15
  -7.07999992      -2.15201121E-13
  -6.96000004      -4.44892929E-13
  -6.84000015      -6.29603140E-13
  -6.71999979      -7.07914304E-13
  -6.59999990      -6.31409042E-13
  -6.48000002      -3.82277950E-13
  -6.36000013       1.43489363E-14
  -6.23999977       4.88453950E-13
  -6.11999989       9.36219743E-13
  -6.00000000       1.24299009E-12
  -5.88000011       1.31289380E-12
  -5.76000023       1.09702124E-12
  -5.63999987       6.11497398E-13
  -5.51999998      -6.09285097E-14
  -5.40000010      -7.87491220E-13
  -5.28000021      -1.41630598E-12
  -5.15999985      -1.81291971E-12
  -5.03999996      -1.89184128E-12
  -4.92000008      -1.63392162E-12
  -4.80000019      -1.08522523E-12
  -4.67999983      -3.39418082E-13
  -4.55999994       4.88667537E-13
  -4.44000006       1.28799987E-12
  -4.32000017       1.96610415E-12
  -4.19999981       2.45016377E-12
  -4.07999992       2.67800951E-12
  -3.96000004       2.58821025E-12
  -3.83999991       2.12010162E-12
  -3.72000003       1.23083260E-12
  -3.59999990      -7.17224945E-14
  -3.48000002      -1.69101939E-12
  -3.35999990      -3.41667038E-12
  -3.24000001      -4.93037989E-12
  -3.11999989      -5.85380008E-12
  -3.00000000      -5.83504902E-12
  -2.88000011      -4.65448513E-12
  -2.75999999      -2.31826082E-12
  -2.64000010       8.94321021E-13
  -2.51999998       4.45391293E-12
  -2.40000010       7.67880724E-12
  -2.27999997       9.88676328E-12
  -2.16000009       1.05601500E-11
  -2.03999996       9.47541091E-12
  -1.91999996       6.75618459E-12
  -1.79999995       2.83286220E-12
  -1.67999995      -1.67761941E-12
  -1.55999994      -6.13024779E-12
  -1.44000006      -9.99365174E-12
  -1.32000005      -1.29268315E-11
  -1.20000005      -1.47685007E-11
  -1.08000004      -1.54525229E-11
 -0.959999979      -1.48952482E-11
 -0.839999974      -1.29155601E-11
 -0.720000029      -9.23869228E-12
 -0.600000024      -3.60190632E-12
 -0.479999989       4.06449267E-12
 -0.360000014       1.34462042E-11
 -0.239999995       2.37257089E-11
 -0.119999997       3.36007819E-11
  -1.11022302E-15   4.14618583E-11
  0.119999997       4.56902571E-11
  0.239999995       4.49880931E-11
  0.360000014       3.86287703E-11
  0.479999989       2.65357458E-11
  0.600000024       9.15337337E-12
  0.720000029      -1.28516486E-11
  0.839999974      -3.89541871E-11
  0.959999979      -6.90649829E-11
   1.08000004      -1.03640090E-10
   1.20000005      -1.43554682E-10
   1.32000005      -1.89779636E-10
   1.44000006      -2.42978748E-10
   1.55999994      -3.03183867E-10
   1.67999995      -3.69685837E-10
   1.79999995      -4.41206321E-10
   1.91999996      -5.16311216E-10
   2.03999996      -5.93932514E-10
   2.16000009      -6.73815947E-10
   2.27999997      -7.56726348E-10
   2.40000010      -8.44326276E-10
   2.51999998      -9.38755851E-10
   2.64000010      -1.04205411E-09
   2.75999999      -1.15562193E-09
   2.88000011      -1.27991606E-09
   3.00000000      -1.41448064E-09
   3.11999989      -1.55829805E-09
   3.24000001      -1.71032155E-09
   3.35999990      -1.86998750E-09
   3.48000002      -2.03751038E-09
   3.59999990      -2.21385865E-09
   3.72000003      -2.40043341E-09
   3.83999991      -2.59860422E-09
   3.96000004      -2.80932055E-09
   4.07999992      -3.03298764E-09
   4.19999981      -3.26970739E-09
   4.32000017      -3.51981977E-09
   4.44000006      -3.78454956E-09
   4.55999994      -4.06649336E-09
   4.67999983      -4.36971437E-09
   4.80000019      -4.69934358E-09
   4.92000008      -5.06076425E-09
   5.03999996      -5.45862600E-09
   5.15999985      -5.89601079E-09
   5.28000021      -6.37405106E-09
   5.40000010      -6.89213753E-09
   5.51999998      -7.44866124E-09
   5.63999987      -8.04203193E-09
   5.76000023      -8.67160921E-09
   5.88000011      -9.33822264E-09
   6.00000000      -1.00441051E-08
   6.11999989      -1.07923039E-08
   6.23999977      -1.15858469E-08
   6.36000013      -1.24270496E-08
   6.48000002      -1.33173303E-08
   6.59999990      -1.42576866E-08
   6.71999979      -1.52497801E-08
   6.84000015      -1.62972125E-08
   6.96000004      -1.74065669E-08
   7.07999992      -1.85876967E-08
   7.19999981      -1.98530561E-08
   7.32000017      -2.12161595E-08
   7.44000006      -2.26895498E-08
   7.55999994      -2.42829312E-08
   7.67999983      -2.60020787E-08
   7.80000019      -2.78489267E-08
   7.92000008      -2.98228571E-08
   8.03999996      -3.19228306E-08
   8.15999985      -3.41496893E-08
   8.27999973      -3.65078989E-08
   8.39999962      -3.90061530E-08
   8.52000046      -4.16566905E-08
   8.64000034      -4.44735910E-08
   8.76000023      -4.74706709E-08
   8.88000011      -5.06597218E-08
   9.00000000      -5.40497886E-08
   9.11999989      -5.76476680E-08
   9.23999977      -6.14594953E-08
   9.35999966      -6.54927703E-08
   9.47999954      -6.97580376E-08
   9.60000038      -7.42696713E-08
   9.72000027      -7.90453072E-08
   9.84000015      -8.41042151E-08
   9.96000004      -8.94652104E-08
   10.0799999      -9.51448342E-08
   10.1999998      -1.01156580E-07
   10.3199997      -1.07511390E-07
   10.4399996      -1.14219311E-07
   10.5600004      -1.21291663E-07
   10.6800003      -1.28742855E-07
   10.8000002      -1.36591254E-07
   10.9200001      -1.44858632E-07
   11.0400000      -1.53568564E-07
   11.1599998      -1.62744243E-07
   11.2799997      -1.72406644E-07
   11.3999996      -1.82573871E-07
   11.5200005      -1.93261812E-07
   11.6400003      -2.04486099E-07
   11.7600002      -2.16264723E-07
   11.8800001      -2.28620337E-07
   12.0000000      -2.41581745E-07
   12.1199999      -2.55183920E-07
   12.2399998      -2.69466682E-07
   12.3599997      -2.84472719E-07
   12.4799995      -3.00245347E-07
   12.6000004      -3.16826515E-07
   12.7200003      -3.34255731E-07
   12.8400002      -3.52569288E-07
   12.9600000      -3.71800184E-07
   13.0799999      -3.91977892E-07
   13.1999998      -4.13128191E-07
   13.3199997      -4.35273250E-07
   13.4399996      -4.58431970E-07
   13.5600004      -4.82621601E-07
   13.6800003      -5.07859966E-07
   13.8000002      -5.34168692E-07
   13.9200001      -5.61576542E-07
   14.0400000      -5.90122056E-07
   14.1599998      -6.19854291E-07
   14.2799997      -6.50831453E-07
   14.3999996      -6.83118003E-07
   14.5200005      -7.16780107E-07
   14.6400003      -7.51881089E-07
   14.7600002      -7.88478474E-07
   14.8800001      -8.26623079E-07
   15.0000000      -8.66359699E-07
   15.1199999      -9.07730680E-07
   15.2399998      -9.50778599E-07
   15.3599997      -9.95548703E-07
   15.4799995      -1.04208959E-06
   15.6000004      -1.09045141E-06
   15.7200003      -1.14068303E-06
   15.8400002      -1.19282913E-06
   15.9600000      -1.24692735E-06
   16.0799999      -1.30300896E-06
   16.2000008      -1.36110077E-06
   16.3199997      -1.42123054E-06
   16.4400005      -1.48343190E-06
   16.5599995      -1.54774841E-06
   16.6800003      -1.61423566E-06
   16.7999992      -1.68295935E-06
   16.9200001      -1.75399123E-06
   17.0400009      -1.82740189E-06
   17.1599998      -1.90325534E-06
   17.2800007      -1.98160456E-06
   17.3999996      -2.06249047E-06
   17.5200005      -2.14594343E-06
   17.6399994      -2.23198822E-06
   17.7600002      -2.32065008E-06
   17.8799992      -2.41195926E-06
   18.0000000      -2.50595349E-06
   18.1200008      -2.60267711E-06
   18.2399998      -2.70217697E-06
   18.3600006      -2.80449967E-06
   18.4799995      -2.90968455E-06
   18.6000004      -3.01776413E-06
   18.7199993      -3.12876296E-06
   18.8400002      -3.24270127E-06
   18.9599991      -3.35959953E-06
   19.0799999      -3.47948048E-06
   19.2000008      -3.60237186E-06
   19.3199997      -3.72830141E-06
   19.4400005      -3.85729345E-06
   19.5599995      -3.98936027E-06
   19.6800003      -4.12449890E-06
   19.7999992      -4.26268571E-06
   19.9200001      -4.40388112E-06
   20.0400009      -4.54803603E-06
   20.1599998      -4.69509996E-06
   20.2800007      -4.84503153E-06
   20.3999996      -4.99780481E-06
   20.5200005      -5.15340844E-06
   20.6399994      -5.31184560E-06
   20.7600002      -5.47312220E-06
   20.8799992      -5.63724006E-06
   21.0000000      -5.80418464E-06
   21.1200008      -5.97392273E-06
   21.2399998      -6.14640021E-06
   21.3600006      -6.32154479E-06
   21.4799995      -6.49927370E-06
   21.6000004      -6.67949780E-06
   21.7199993      -6.86212661E-06
   21.8400002      -7.04707099E-06
   21.9599991      -7.23424046E-06
   22.0799999      -7.42354086E-06
   22.2000008      -7.61487081E-06
   22.3199997      -7.80812024E-06
   22.4400005      -8.00316684E-06
   22.5599995      -8.19988145E-06
   22.6800003      -8.39811946E-06
   22.7999992      -8.59772808E-06
   22.9200001      -8.79854269E-06
   23.0400009      -9.00038776E-06
   23.1599998      -9.20308048E-06
   23.2800007      -9.40643258E-06
   23.3999996      -9.61025489E-06
   23.5200005      -9.81436006E-06
   23.6399994      -1.00185634E-05
   23.7600002      -1.02226886E-05
   23.8799992      -1.04265600E-05
   24.0000000      -1.06300004E-05
   24.1200008      -1.08328231E-05
   24.2399998      -1.10348210E-05
   24.3600006      -1.12357693E-05
   24.4799995      -1.14354170E-05
   24.6000004      -1.16334968E-05
   24.7199993      -1.18297294E-05
   24.8400002      -1.20238301E-05
   24.9599991      -1.22155161E-05
   25.0799999      -1.24045118E-05
   25.2000008      -1.25905372E-05
   25.3199997      -1.27733101E-05
   25.4400005      -1.29525361E-05
   25.5599995      -1.31278966E-05
   25.6800003      -1.32990563E-05
   25.7999992      -1.34656539E-05
   25.9200001      -1.36273165E-05
   26.0400009      -1.37836651E-05
   26.1599998      -1.39343219E-05
   26.2800007      -1.40789161E-05
   26.3999996      -1.42170866E-05
   26.5200005      -1.43484740E-05
   26.6399994      -1.44727192E-05
   26.7600002      -1.45894564E-05
   26.8799992      -1.46983120E-05
   27.0000000      -1.47988994E-05
   27.1200008      -1.48908321E-05
   27.2399998      -1.49737170E-05
   27.3600006      -1.50471587E-05
   27.4799995      -1.51107661E-05
   27.6000004      -1.51641416E-05
   27.7199993      -1.52068815E-05
   27.8400002      -1.52385655E-05
   27.9599991      -1.52587590E-05
   28.0799999      -1.52670000E-05
   28.2000008      -1.52628127E-05
   28.3199997      -1.52457087E-05
   28.4400005      -1.52152043E-05
   28.5599995      -1.51708145E-05
   28.6800003      -1.51120712E-05
   28.7999992      -1.50385167E-05
   28.9200001      -1.49497009E-05
   29.0400009      -1.48451763E-05
   29.1599998      -1.47244855E-05
   29.2800007      -1.45871609E-05
   29.3999996      -1.44327205E-05
   29.5200005      -1.42606696E-05
   29.6399994      -1.40705115E-05
   29.7600002      -1.38617588E-05
   29.8799992      -1.36339413E-05
   30.0000000      -1.33866033E-05
   30.1200008      -1.31193165E-05
   30.2399998      -1.28316624E-05
   30.3600006      -1.25232300E-05
   30.4799995      -1.21936018E-05
   30.6000004      -1.18423486E-05
   30.7199993      -1.14690256E-05
   30.8400002      -1.10731708E-05
   30.9599991      -1.06543066E-05
   31.0799999      -1.02119420E-05
   31.2000008      -9.74558225E-06
   31.3199997      -9.25472978E-06
   31.4400005      -8.73889439E-06
   31.5599995      -8.19759498E-06
   31.6800003      -7.63036769E-06
   31.7999992      -7.03675960E-06
   31.9200001      -6.41633324E-06
   32.0400009      -5.76865978E-06
   32.1599998      -5.09331358E-06
   32.2799988      -4.38986672E-06
   32.4000015      -3.65788719E-06
   32.5200005      -2.89693776E-06
   32.6399994      -2.10658345E-06
   32.7599983      -1.28639465E-06
   32.8800011      -4.35958725E-07
   33.0000000       4.45115091E-07
   33.1199989       1.35719495E-06
   33.2400017       2.30062574E-06
   33.3600006       3.27573480E-06
   33.4799995       4.28283602E-06
   33.5999985       5.32223658E-06
   33.7200012       6.39424297E-06
   33.8400002       7.49916444E-06
   33.9599991       8.63731384E-06
   34.0800018       9.80901223E-06
   34.2000008       1.10145847E-05
   34.3199997       1.22543579E-05
   34.4399986       1.35286509E-05
   34.5600014       1.48377712E-05
   34.6800003       1.61820026E-05
   34.7999992       1.75615987E-05
   34.9199982       1.89767761E-05
   35.0400009       2.04277239E-05
   35.1599998       2.19146004E-05
   35.2799988       2.34375439E-05
   35.4000015       2.49966815E-05
   35.5200005       2.65921299E-05
   35.6399994       2.82240017E-05
   35.7599983       2.98924133E-05
   35.8800011       3.15974612E-05
   36.0000000       3.33392345E-05
   36.1199989       3.51178096E-05
   36.2400017       3.69332447E-05
   36.3600006       3.87855689E-05
   36.4799995       4.06748113E-05
   36.5999985       4.26009574E-05
   36.7200012       4.45639780E-05
   36.8400002       4.65638077E-05
   36.9599991       4.86003592E-05
   37.0800018       5.06734905E-05
   37.2000008       5.27830234E-05
   37.3199997       5.49287724E-05
   37.4399986       5.71105047E-05
   37.5600014       5.93279947E-05
   37.6800003       6.15809913E-05
   37.7999992       6.38692582E-05
   37.9199982       6.61925442E-05
   38.0400009       6.85505729E-05
   38.1599998       7.09430824E-05
   38.2799988       7.33697234E-05
   38.4000015       7.58301176E-05
   38.5200005       7.83238356E-05
   38.6399994       8.08503828E-05
   38.7599983       8.34092134E-05
   38.8800011       8.59997381E-05
   39.0000000       8.86213456E-05
   39.1199989       9.12733958E-05
   39.2400017       9.39552483E-05
   39.3600006       9.66662483E-05
   39.4799995       9.94057045E-05
   39.5999985       1.02172926E-04
   39.7200012       1.04967163E-04
   39.8400002       1.07787637E-04
   39.9599991       1.10633511E-04
   40.0800018       1.13503920E-04
   40.2000008       1.16397925E-04
   40.3199997       1.19314580E-04
   40.4399986       1.22252866E-04
   40.5600014       1.25211751E-04
   40.6800003       1.28190135E-04
   40.7999992       1.31186898E-04
   40.9199982       1.34200833E-04
   41.0400009       1.37230745E-04
   41.1599998       1.40275341E-04
   41.2799988       1.43333338E-04
   41.4000015       1.46403414E-04
   41.5200005       1.49484214E-04
   41.6399994       1.52574372E-04
   41.7599983       1.55672475E-04
   41.8800011       1.58777155E-04
   42.0000000       1.61886943E-04
   42.1199989       1.65000311E-04
   42.2400017       1.68115701E-04
   42.3600006       1.71231470E-04
   42.4799995       1.74345900E-04
   42.5999985       1.77457201E-04
   42.7200012       1.80563555E-04
   42.8400002       1.83663113E-04
   42.9599991       1.86754012E-04
   43.0800018       1.89834405E-04
   43.2000008       1.92902415E-04
   43.3199997       1.95956178E-04
   43.4399986       1.98993774E-04
   43.5600014       2.02013194E-04
   43.6800003       2.05012417E-04
   43.7999992       2.07989346E-04
   43.9199982       2.10941813E-04
   44.0400009       2.13867650E-04
   44.1599998       2.16764587E-04
   44.2799988       2.19630412E-04
   44.4000015       2.22462841E-04
   44.5200005       2.25259602E-04
   44.6399994       2.28018398E-04
   44.7599983       2.30736914E-04
   44.8800011       2.33412808E-04
   45.0000000       2.36043721E-04
   45.1199989       2.38627268E-04
   45.2400017       2.41161033E-04
   45.3600006       2.43642615E-04
   45.4799995       2.46069540E-04
   45.5999985       2.48439377E-04
   45.7200012       2.50749552E-04
   45.8400002       2.52997561E-04
   45.9599991       2.55180843E-04
   46.0800018       2.57296866E-04
   46.2000008       2.59343069E-04
   46.3199997       2.61316920E-04
   46.4399986       2.63215887E-04
   46.5600014       2.65037437E-04
   46.6800003       2.66778952E-04
   46.7999992       2.68437871E-04
   46.9199982       2.70011660E-04
   47.0400009       2.71497644E-04
   47.1599998       2.72893260E-04
   47.2799988       2.74195889E-04
   47.4000015       2.75402941E-04
   47.5200005       2.76511826E-04
   47.6399994       2.77520070E-04
   47.7599983       2.78425112E-04
   47.8800011       2.79224507E-04
   48.0000000       2.79915781E-04
   48.1199989       2.80496519E-04
   48.2400017       2.80964392E-04
   48.3600006       2.81317043E-04
   48.4799995       2.81552144E-04
   48.5999985       2.81667395E-04
   48.7200012       2.81660468E-04
   48.8400002       2.81529094E-04
   48.9599991       2.81271001E-04
   49.0800018       2.80883920E-04
   49.2000008       2.80365784E-04
   49.3199997       2.79714470E-04
   49.4399986       2.78928026E-04
   49.5600014       2.78004532E-04
   49.6800003       2.76942097E-04
   49.7999992       2.75738945E-04
   49.9199982       2.74393271E-04
   50.0400009       2.72903329E-04
   50.1599998       2.71267520E-04
   50.2799988       2.69484211E-04
   50.4000015       2.67551979E-04
   50.5200005       2.65469484E-04
   50.6399994       2.63235328E-04
   50.7599983       2.60848319E-04
   50.8800011       2.58307264E-04
   51.0000000       2.55611114E-04
   51.1199989       2.52758880E-04
   51.2400017       2.49749661E-04
   51.3600006       2.46582669E-04
   51.4799995       2.43257309E-04
   51.5999985       2.39772984E-04
   51.7200012       2.36129359E-04
   51.8400002       2.32326114E-04
   51.9599991       2.28363046E-04
   52.0800018       2.24240081E-04
   52.2000008       2.19957292E-04
   52.3199997       2.15514825E-04
   52.4399986       2.10912985E-04
   52.5600014       2.06152195E-04
   52.6800003       2.01232993E-04
   52.7999992       1.96156077E-04
   52.9199982       1.90922263E-04
   53.0400009       1.85532510E-04
   53.1599998       1.79987896E-04
   53.2799988       1.74289671E-04
   53.4000015       1.68439205E-04
   53.5200005       1.62438009E-04
   53.6399994       1.56287759E-04
   53.7599983       1.49990286E-04
   53.8800011       1.43547601E-04
   54.0000000       1.36961782E-04
   54.1199989       1.30235174E-04
   54.2400017       1.23370221E-04
   54.3600006       1.16369578E-04
   54.4799995       1.09235996E-04
   54.5999985       1.01972437E-04
   54.7200012       9.45820066E-05
   54.8400002       8.70679796E-05
   54.9599991       7.94337539E-05
   55.0800018       7.16829236E-05
   55.2000008       6.38192287E-05
   55.3199997       5.58465472E-05
   55.4399986       4.77689173E-05
   55.5600014       3.95905045E-05
   55.6800003       3.13156343E-05
   55.7999992       2.29487923E-05
   55.9199982       1.44946243E-05
   56.0400009       5.95795336E-06
   56.1599998      -2.65624908E-06
   56.2799988      -1.13428632E-05
   56.4000015      -2.00966369E-05
   56.5200005      -2.89121817E-05
   56.6399994      -3.77839824E-05
   56.7599983      -4.67063983E-05
   56.8800011      -5.56736450E-05
   57.0000000      -6.46798362E-05
   57.1199989      -7.37189257E-05
   57.2400017      -8.27847543E-05
   57.3600006      -9.18710721E-05
   57.4799995      -1.00971498E-04
   57.5999985      -1.10079556E-04
   57.7200012      -1.19188684E-04
   57.8400002      -1.28292231E-04
   57.9599991      -1.37383453E-04
   58.0800018      -1.46455539E-04
   58.2000008      -1.55501606E-04
   58.3199997      -1.64514669E-04
   58.4399986      -1.73487715E-04
   58.5600014      -1.82413627E-04
   58.6800003      -1.91285289E-04
   58.7999992      -2.00095557E-04
   58.9199982      -2.08837257E-04
   59.0400009      -2.17503271E-04
   59.1599998      -2.26086442E-04
   59.2799988      -2.34579624E-04
   59.4000015      -2.42975613E-04
   59.5200005      -2.51267193E-04
   59.6399994      -2.59447203E-04
   59.7599983      -2.67508382E-04
   59.8800011      -2.75443599E-04
   60.0000000      -2.83245841E-04
   60.1199989      -2.90908152E-04
   60.2400017      -2.98423722E-04
   60.3600006      -3.05785827E-04
   60.4799995      -3.12987831E-04
   60.5999985      -3.20023304E-04
   60.7200012      -3.26885638E-04
   60.8400002      -3.33568489E-04
   60.9599991      -3.40065482E-04
   61.0800018      -3.46370420E-04
   61.2000008      -3.52477247E-04
   61.3199997      -3.58380174E-04
   61.4399986      -3.64073581E-04
   61.5600014      -3.69552057E-04
   61.6800003      -3.74810363E-04
   61.7999992      -3.79843434E-04
   61.9199982      -3.84646381E-04
   62.0400009      -3.89214547E-04
   62.1599998      -3.93543392E-04
   62.2799988      -3.97628697E-04
   62.4000015      -4.01466532E-04
   62.5200005      -4.05053142E-04
   62.6399994      -4.08385153E-04
   62.7599983      -4.11459419E-04
   62.8800011      -4.14273061E-04
   63.0000000      -4.16823401E-04
   63.1199989      -4.19108022E-04
   63.2400017      -4.21124743E-04
   63.3600006      -4.22871672E-04
   63.4799995      -4.24347236E-04
   63.5999985      -4.25550272E-04
   63.7200012      -4.26479877E-04
   63.8400002      -4.27135528E-04
   63.9599991      -4.27516934E-04
   64.0800018      -4.27624211E-04
   64.1999969      -4.27457708E-04
   64.3199997      -4.27018182E-04
   64.4400024      -4.26306506E-04
   64.5599976      -4.25324077E-04
   64.6800003      -4.24072467E-04
   64.8000031      -4.22553712E-04
   64.9199982      -4.20770055E-04
   65.0400009      -4.18723939E-04
   65.1600037      -4.16418305E-04
   65.2799988      -4.13856294E-04
   65.4000015      -4.11041372E-04
   65.5199966      -4.07977321E-04
   65.6399994      -4.04668332E-04
   65.7600021      -4.01118828E-04
   65.8799973      -3.97333584E-04
   66.0000000      -3.93317721E-04
   66.1200027      -3.89076478E-04
   66.2399979      -3.84615472E-04
   66.3600006      -3.79940466E-04
   66.4800034      -3.75057483E-04
   66.5999985      -3.69972840E-04
   66.7200012      -3.64692969E-04
   66.8399963      -3.59224621E-04
   66.9599991      -3.53574753E-04
   67.0800018      -3.47750640E-04
   67.1999969      -3.41759704E-04
   67.3199997      -3.35609599E-04
   67.4400024      -3.29308241E-04
   67.5599976      -3.22863663E-04
   67.6800003      -3.16283928E-04
   67.8000031      -3.09577328E-04
   67.9199982      -3.02752131E-04
   68.0400009      -2.95816775E-04
   68.1600037      -2.88779760E-04
   68.2799988      -2.81649671E-04
   68.4000015      -2.74435268E-04
   68.5199966      -2.67145399E-04
   68.6399994      -2.59788940E-04
   68.7600021      -2.52374826E-04
   68.8799973      -2.44912051E-04
   69.0000000      -2.37409477E-04
   69.1200027      -2.29875994E-04
   69.2399979      -2.22320479E-04
   69.3600006      -2.14751737E-04
   69.4800034      -2.07178586E-04
   69.5999985      -1.99609756E-04
   69.7200012      -1.92053907E-04
   69.8399963      -1.84519566E-04
   69.9599991      -1.77015114E-04
   70.0800018      -1.69548846E-04
   70.1999969      -1.62128898E-04
   70.3199997      -1.54763300E-04
   70.4400024      -1.47459985E-04
   70.5599976      -1.40226781E-04
   70.6800003      -1.33071328E-04
   70.8000031      -1.26001076E-04
   70.9199982      -1.19023258E-04
   71.0400009      -1.12144808E-04
   71.1600037      -1.05372412E-04
   71.2799988      -9.87124586E-05
   71.4000015      -9.21711326E-05
   71.5199966      -8.57543564E-05
   71.6399994      -7.94678635E-05
   71.7600021      -7.33171182E-05
   71.8799973      -6.73073737E-05
   72.0000000      -6.14435921E-05
   72.1200027      -5.57304775E-05
   72.2399979      -5.01724644E-05
   72.3600006      -4.47736893E-05
   72.4800034      -3.95380084E-05
   72.5999985      -3.44689688E-05
   72.7200012      -2.95698010E-05