  -30.0000000       0.00000000    
  -29.8799992       0.00000000    
  -29.7600002       0.00000000    
  -29.6399994       0.00000000    
  -29.5200005      -7.52497275E-43
  -29.3999996       2.10475029E-41
  -29.2800007      -2.12415828E-40
  -29.1599998      -1.89716614E-39
  -29.0400009      -4.67307394E-39
  -28.9200001       4.74236395E-39
  -28.7999992       6.63876358E-38
  -28.6800003       2.21687928E-37
  -28.5599995       3.84692347E-37
  -28.4400005       1.28920232E-37
  -28.3199997      -1.34286490E-36
  -28.2000008      -4.52800582E-36
  -28.0799999      -7.95489614E-36
  -27.9599991      -6.36960383E-36
  -27.8400002       8.61375484E-36
  -27.7199993       4.21613807E-35
  -27.6000004       8.38999278E-35
  -27.4799995       9.67092519E-35
  -27.3600006       2.15583741E-35
  -27.2399998      -1.87118038E-34
  -27.1200008      -4.98079089E-34
  -27.0000000      -7.46388679E-34
  -26.8799992      -6.44699647E-34
  -26.7600002       8.41805025E-35
  -26.6399994       1.46642406E-33
  -26.5200005       3.04775784E-33
  -26.3999996       3.87562912E-33
  -26.2800007       2.85729616E-33
  -26.1599998      -5.40851425E-34
  -26.0400009      -5.58557851E-33
  -25.9200001      -1.01035848E-32
  -25.7999992      -1.12831324E-32
  -25.6800003      -7.37714981E-33
  -25.5599995       5.16273996E-34
  -25.4400005       7.95393844E-33
  -25.3199997       9.07556283E-33
  -25.2000008       9.05910425E-34
  -25.0799999      -1.18667573E-32
  -24.9599991      -1.50486978E-32
  -24.8400002       1.05827023E-32
  -24.7199993       7.74506426E-32
  -24.6000004       1.75295301E-31
  -24.4799995       2.59150307E-31
  -24.3600006       2.51415225E-31
  -24.2399998       6.58828202E-32
  -24.1200008      -3.46374433E-31
  -24.0000000      -9.41277760E-31
  -23.8799992      -1.53989967E-30
  -23.7600002      -1.83000472E-30
  -23.6399994      -1.43505366E-30
  -23.5200005      -5.57310747E-32
  -23.3999996       2.34120389E-30
  -23.2800007       5.34556978E-30
  -23.1599998       8.02144781E-30
  -23.0400009       9.00544981E-30
  -22.9200001       6.83968441E-30
  -22.7999992       5.25638192E-31
  -22.6800003      -9.80997996E-30
  -22.5599995      -2.23458143E-29
  -22.4400005      -3.33692009E-29
  -22.3199997      -3.77236803E-29
  -22.2000008      -3.00594391E-29
  -22.0799999      -6.81320889E-30
  -21.9599991       3.14784703E-29
  -21.8400002       7.82611383E-29
  -21.7199993       1.20383947E-28
  -21.6000004       1.39759464E-28
  -21.4799995       1.17740223E-28
  -21.3600006       4.18768038E-29
  -21.2399998      -8.63552320E-29
  -21.1200008      -2.45324716E-28
  -21.0000000      -3.91582411E-28
  -20.8799992      -4.65570116E-28
  -20.7600002      -4.06059073E-28
  -20.6399994      -1.72058103E-28
  -20.5200005       2.32427533E-28
  -20.3999996       7.38615126E-28
  -20.2800007       1.20780450E-27
  -20.1599998       1.44970631E-27
  -20.0400009       1.26862132E-27
  -19.9200001       5.33704077E-28
  -19.7999992      -7.41143198E-28
  -19.6800003      -2.33276762E-27
  -19.5599995      -3.79121736E-27
  -19.4400005      -4.49877552E-27
  -19.3199997      -3.82128498E-27
  -19.2000008      -1.34059689E-27
  -19.0799999       2.87919362E-27
  -18.9599991       8.07570082E-27
  -18.8400002       1.27295287E-26
  -18.7199993       1.47641651E-26
  -18.6000004       1.20583884E-26
  -18.4799995       3.23346304E-27
  -18.3600006      -1.14452855E-26
  -18.2399998      -2.93357618E-26
  -18.1200008      -4.52150357E-26
  -18.0000000      -5.19437049E-26
  -17.8799992      -4.21826144E-26
  -17.7600002      -1.10473969E-26
  -17.6399994       4.08146217E-26
  -17.5200005       1.04647933E-25
  -17.3999996       1.62706802E-25
  -17.2800007       1.90235336E-25
  -17.1599998       1.61018800E-25
  -17.0400009       5.62778423E-26
  -16.9200001      -1.24642094E-25
  -16.7999992      -3.54755334E-25
  -16.6800003      -5.75130777E-25
  -16.5599995      -6.99985863E-25
  -16.4400005      -6.34097686E-25
  -16.3199997      -3.02481072E-25
  -16.2000008       3.12151422E-25
  -16.0799999       1.13368838E-24
  -15.9600000       1.97238419E-24
  -15.8400002       2.53511930E-24
  -15.7200003       2.47781131E-24
  -15.6000004       1.50241873E-24
  -15.4799995      -5.13621567E-25
  -15.3599997      -3.38517293E-24
  -15.2399998      -6.52964271E-24
  -15.1199999      -8.97231855E-24
  -15.0000000      -9.49204063E-24
  -14.8800001      -6.92581378E-24
  -14.7600002      -6.04925955E-25
  -14.6400003       9.16377431E-24
  -14.5200005       2.07156104E-23
  -14.3999996       3.09256099E-23
  -14.2799997       3.55591517E-23
  -14.1599998       3.01789531E-23
  -14.0400000       1.15721643E-23
  -13.9200001      -2.05335350E-23
  -13.8000002      -6.19075067E-23
  -13.6800003      -1.03014392E-22
  -13.5600004      -1.29619629E-22
  -13.4399996      -1.25289628E-22
  -13.3199997      -7.58736516E-23
  -13.1999998       2.45688126E-23
  -13.0799999       1.67677434E-22
  -12.9600000       3.26497487E-22
  -12.8400002       4.55298455E-22
  -12.7200003       4.95576103E-22
  -12.6000004       3.89263679E-22
  -12.4799995       9.82920372E-23
  -12.3599997      -3.72870064E-22
  -12.2399998      -9.57670071E-22
  -12.1199999      -1.51879509E-21
  -12.0000000      -1.85848056E-21
  -11.8800001      -1.75364976E-21
  -11.7600002      -1.01647280E-21
  -11.6400003       4.26991602E-22
  -11.5200005       2.45677004E-21
  -11.3999996       4.70269788E-21
  -11.2799997       6.54143880E-21
  -11.1599998       7.17345325E-21
  -11.0400000       5.79380323E-21
  -10.9200001       1.84751739E-21
  -10.8000002      -4.67100531E-21
  -10.6800003      -1.29482321E-20
  -10.5600004      -2.12107204E-20
  -10.4399996      -2.68193200E-20
  -10.3199997      -2.66810629E-20
  -10.1999998      -1.80014244E-20
  -10.0799999       6.95307353E-22
  -9.96000004       2.84668909E-20
  -9.84000015       6.10779114E-20
  -9.72000027       9.07244200E-20
  -9.60000038       1.06726823E-19
  -9.47999954       9.74359566E-20
  -9.35999966       5.33429261E-20
  -9.23999977      -2.89866026E-20
  -9.11999989      -1.42957864E-19
  -9.00000000      -2.69155912E-19
  -8.88000011      -3.75101515E-19
  -8.76000023      -4.18815580E-19
  -8.64000034      -3.56903981E-19
  -8.52000046      -1.56861439E-19
  -8.39999962       1.88089885E-19
  -8.27999973       6.44828853E-19
  -8.15999985       1.13130101E-18
  -8.03999996       1.51763261E-18
  -7.92000008       1.64173793E-18
  -7.80000019       1.34153889E-18
  -7.67999983       5.02091756E-19
  -7.55999994      -8.89136027E-19
  -7.44000006      -2.69097260E-18
  -7.32000017      -4.57767376E-18
  -7.19999981      -6.04651616E-18
  -7.07999992      -6.47906792E-18
  -6.96000004      -5.26306651E-18
  -6.84000015      -1.96794602E-18
  -6.71999979       3.45098552E-18
  -6.59999990       1.04636577E-17
  -6.48000002       1.78507313E-17
  -6.36000013       2.37279703E-17
  -6.23999977       2.57642094E-17
  -6.11999989       2.16187177E-17
  -6.00000000       9.57553376E-18
  -5.88000011      -1.07104818E-17
  -5.76000023      -3.75076942E-17
  -5.63999987      -6.65480633E-17
  -5.51999998      -9.10426614E-17
  -5.40000010      -1.02372687E-16
  -5.28000021      -9.15639969E-17
  -5.15999985      -5.14930618E-17
  -5.03999996       2.04394311E-17
  -4.92000008       1.19662978E-16
  -4.80000019       2.32514329E-16
  -4.67999983       3.35834482E-16
  -4.55999994       3.98823743E-16
  -4.44000006       3.87622817E-16
  -4.32000017       2.72590555E-16
  -4.19999981       3.75580133E-17
  -4.07999992      -3.10445251E-16
  -3.96000004      -7.33221259E-16
  -3.83999991      -1.15787276E-15
  -3.72000003      -1.48037219E-15
  -3.59999990      -1.57820163E-15
  -3.48000002      -1.33260369E-15
  -3.35999990      -6.58868390E-16
  -3.24000001       4.59473234E-16
  -3.11999989       1.93920168E-15
  -3.00000000       3.57727636E-15
  -2.88000011       5.05116875E-15
  -2.75999999       5.94747149E-15
  -2.64000010       5.82289539E-15
  -2.51999998       4.29574750E-15
  -2.40000010       1.15818341E-15
  -2.27999997      -3.50888226E-15
  -2.16000009      -9.24361634E-15
  -2.03999996      -1.51633687E-14
  -1.91999996      -2.00053546E-14
  -1.79999995      -2.22682455E-14
  -1.67999995      -2.04594828E-14
  -1.55999994      -1.34311236E-14
  -1.44000006      -7.61135971E-16
  -1.32000005       1.68882344E-14
  -1.20000005       3.75223161E-14
  -1.08000004       5.77694224E-14
 -0.959999979       7.31207697E-14
 -0.839999974       7.85016312E-14
 -0.720000029       6.91641975E-14
 -0.600000024       4.18199749E-14
 -0.479999989      -4.15028229E-15
 -0.360000014      -6.56416382E-14
 -0.239999995      -1.35202505E-13
 -0.119999997      -2.01121861E-13
  -1.11022302E-15  -2.48443898E-13
  0.119999997      -2.61003811E-13
  0.239999995      -2.24393109E-13
  0.360000014      -1.29537887E-13
  0.479999989       2.36560513E-14
  0.600000024       2.23328788E-13
  0.720000029       4.44195082E-13
  0.839999974       6.48363958E-13
  0.959999979       7.89013169E-13
   1.08000004       8.17073134E-13
   1.20000005       6.90505541E-13
   1.32000005       3.85102893E-13
   1.44000006      -9.49145480E-14
   1.55999994      -7.08719758E-13
   1.67999995      -1.37553358E-12
   1.79999995      -1.97830034E-12
   1.91999996      -2.37583195E-12
   2.03999996      -2.42361448E-12
   2.16000009      -2.00179391E-12
   2.27999997      -1.04697544E-12
   2.40000010       4.17322752E-13
   2.51999998       2.25802840E-12
   2.64000010       4.22458943E-12
   2.75999999       5.96186772E-12
   2.88000011       7.04775864E-12
   3.00000000       7.05577263E-12
   3.11999989       5.63807334E-12
   3.24000001       2.61910979E-12
   3.35999990      -1.91503280E-12
   3.48000002      -7.55014627E-12
   3.59999990      -1.35200696E-11
   3.72000003      -1.87432587E-11
   3.83999991      -2.19313543E-11
   3.96000004      -2.17713937E-11
   4.07999992      -1.71700223E-11
   4.19999981      -7.53308266E-12
   4.32000017       6.96048340E-12
   4.44000006       2.51427473E-11
   4.55999994       4.47561918E-11
   4.67999983       6.25219460E-11
   4.80000019       7.44158415E-11
   4.92000008       7.61659763E-11
   5.03999996       6.39501507E-11
   5.15999985       3.52303811E-11
   5.28000021      -1.03806087E-11
   5.40000010      -7.03618760E-11
   5.51999998      -1.38798875E-10
   5.63999987      -2.06333811E-10
   5.76000023      -2.60688887E-10
   5.88000011      -2.87842805E-10
   6.00000000      -2.73855660E-10
   6.11999989      -2.07229775E-10
   6.23999977      -8.15757462E-11
   6.36000013       1.01759851E-10
   6.48000002       3.31536409E-10
   6.59999990       5.85405779E-10
   6.71999979       8.30098212E-10
   6.84000015       1.02336839E-09
   6.96000004       1.11788812E-09
   7.07999992       1.06702458E-09
   7.19999981       8.32148794E-10
   7.32000017       3.90792537E-10
   7.44000006      -2.55318988E-10
   7.55999994      -1.07356490E-09
   7.67999983      -1.99637284E-09
   7.80000019      -2.92107249E-09
   7.92000008      -3.71468634E-09
   8.03999996      -4.22424007E-09
   8.15999985      -4.29256319E-09
   8.27999973      -3.77879150E-09
   8.39999962      -2.58196220E-09
   8.52000046      -6.65318078E-10
   8.64000034       1.92171457E-09
   8.76000023       5.02728437E-09
   8.88000011       8.39004777E-09
   9.00000000       1.16443113E-08
   9.11999989       1.43395482E-08
   9.23999977       1.59751501E-08
   9.35999966       1.60495617E-08
   9.47999954       1.41211265E-08
   9.60000038       9.87592941E-09
   9.72000027       3.19621574E-09
   9.84000015      -5.77837111E-09
   9.96000004      -1.66052168E-08
   10.0799999      -2.85171904E-08
   10.1999998      -4.04323721E-08
   10.3199997      -5.10003169E-08
   10.4399996      -5.86870854E-08
   10.5600004      -6.18977154E-08
   10.6800003      -5.91305209E-08
   10.8000002      -4.91535594E-08
   10.9200001      -3.11896997E-08
   11.0400000      -5.09357401E-09
   11.1599998       2.84981869E-08
   11.2799997       6.80624268E-08
   11.3999996       1.11148438E-07
   11.5200005       1.54415133E-07
   11.6400003       1.93756293E-07
   11.7600002       2.24517692E-07
   11.8800001       2.41802383E-07
   12.0000000       2.40853211E-07
   12.1199999       2.17493280E-07
   12.2399998       1.68598845E-07
   12.3599997       9.25734156E-08
   12.4799995      -1.02116937E-08
   12.6000004      -1.37046399E-07
   12.7200003      -2.82614650E-07
   12.8400002      -4.38861747E-07
   12.9600000      -5.95019969E-07
   13.0799999      -7.37808080E-07
   13.1999998      -8.51809261E-07
   13.3199997      -9.20022728E-07
   13.4399996      -9.24570884E-07
   13.5600004      -8.47535432E-07
   13.6800003      -6.71884720E-07
   13.8000002      -3.82449173E-07
   13.9200001       3.31043672E-08
   14.0400000       5.83350811E-07
   14.1599998       1.27228691E-06
   14.2799997       2.09866039E-06
   14.3999996       3.05548883E-06
   14.5200005       4.12979898E-06
   14.6400003       5.30261241E-06
   14.7600002       6.54918404E-06
   14.8800001       7.83950327E-06
   15.0000000       9.13903114E-06
   15.1199999       1.04096744E-05
   15.2399998       1.16109395E-05
   15.3599997       1.27012527E-05
   15.4799995       1.36393801E-05
   15.6000004       1.43859152E-05
   15.7200003       1.49047546E-05
   15.8400002       1.51645409E-05
   15.9600000       1.51399836E-05
   16.0799999       1.48130275E-05
   16.2000008       1.41738165E-05
   16.3199997       1.32213909E-05
   16.4400005       1.19641190E-05
   16.5599995       1.04197934E-05
   16.6800003       8.61541139E-06
   16.7999992       6.58661384E-06
   16.9200001       4.37680319E-06
   17.0400009       2.03595005E-06
   17.1599998      -3.80860769E-07
   17.2800007      -2.81511370E-06
   17.3999996      -5.20670801E-06
   17.5200005      -7.49590390E-06
   17.6399994      -9.62529430E-06
   17.7600002      -1.15417297E-05
   17.8799992      -1.31981260E-05
   18.0000000      -1.45550694E-05
   18.1200008      -1.55821781E-05
   18.2399998      -1.62591441E-05
   18.3600006      -1.65764359E-05
   18.4799995      -1.65356032E-05
   18.6000004      -1.61491971E-05
   18.7199993      -1.54403024E-05
   18.8400002      -1.44416754E-05
   18.9599991      -1.31945371E-05
   19.0799999      -1.17470599E-05
   19.2000008      -1.01525948E-05
   19.3199997      -8.46770217E-06
   19.4400005      -6.75006095E-06
   19.5599995      -5.05633579E-06
   19.6800003      -3.44007640E-06
   19.7999992      -1.94974200E-06
   19.9200001      -6.26930387E-07
   20.0400009       4.95108509E-07
   20.1599998       1.39260248E-06
   20.2800007       2.05197466E-06
   20.3999996       2.47010530E-06
   20.5200005       2.65411904E-06
   20.6399994       2.62070057E-06
   20.7600002       2.39496535E-06
   20.8799992       2.00894169E-06
   21.0000000       1.49974278E-06
   21.1200008       9.07522292E-07
   21.2399998       2.73334251E-07
   21.3600006      -3.62986469E-07
   21.4799995      -9.64797778E-07
   21.6000004      -1.50036726E-06
   21.7199993      -1.94423501E-06
   21.8400002      -2.27814962E-06
   21.9599991      -2.49153914E-06
   22.0799999      -2.58150044E-06
   22.2000008      -2.55233977E-06
   22.3199997      -2.41471139E-06
   22.4400005      -2.18444097E-06
   22.5599995      -1.88112847E-06
   22.6800003      -1.52664529E-06
   22.7999992      -1.14363138E-06
   22.9200001      -7.54100427E-07
   23.0400009      -3.78236706E-07
   23.1599998      -3.34493890E-08
   23.2800007       2.66276373E-07
   23.3999996       5.10721691E-07
   23.5200005       6.93484367E-07
   23.6399994       8.11776260E-07
   23.7600002       8.66023868E-07
   23.8799992       8.59337149E-07
   24.0000000       7.96917163E-07
   24.1200008       6.85467342E-07
   24.2399998       5.32662170E-07
   24.3600006       3.46715041E-07
   24.4799995       1.36064543E-07
   24.6000004      -9.08165418E-08
   24.7199993      -3.25505795E-07
   24.8400002      -5.59638977E-07
   24.9599991      -7.84879774E-07
   25.0799999      -9.92897412E-07
   25.2000008      -1.17539298E-06
   25.3199997      -1.32420962E-06
   25.4400005      -1.43154978E-06
   25.5599995      -1.49030393E-06
   25.6800003      -1.49448022E-06
   25.7999992      -1.43970544E-06
   25.9200001      -1.32375033E-06
   26.0400009      -1.14702618E-06
   26.1599998      -9.12987616E-07
   26.2800007      -6.28381997E-07
   26.3999996      -3.03291074E-07
   26.5200005       4.90722201E-08
   26.6399994       4.12832634E-07
   26.7600002       7.70180407E-07
   26.8799992       1.10232759E-06
   27.0000000       1.39063718E-06
   27.1200008       1.61784783E-06
   27.2399998       1.76930257E-06
   27.3600006       1.83408144E-06
   27.4799995       1.80594043E-06
   27.6000004       1.68397116E-06
   27.7199993       1.47291246E-06
   27.8400002       1.18307651E-06
   27.9599991       8.29877024E-07
   28.0799999       4.32986809E-07
   28.2000008       1.51763935E-08
   28.3199997      -3.99082069E-07
   28.4400005      -7.85145573E-07
   28.5599995      -1.11975214E-06
   28.6800003      -1.38248038E-06
   28.7999992      -1.55701071E-06
   28.9200001      -1.63210029E-06
   29.0400009      -1.60220873E-06
   29.1599998      -1.46773834E-06
   29.2800007      -1.23488564E-06
   29.3999996      -9.15130727E-07
   29.5200005      -5.24414759E-07
   29.6399994      -8.20788699E-08
   29.7600002       3.90350550E-07
   29.8799992       8.70438441E-07
   30.0000000       1.33609228E-06
   30.1200008       1.76670608E-06
   30.2399998       2.14413490E-06
   30.3600006       2.45345063E-06
   30.4799995       2.68345570E-06
   30.6000004       2.82694646E-06
   30.7199993       2.88074375E-06
   30.8400002       2.84551516E-06
   30.9599991       2.72543048E-06
   31.0799999       2.52769723E-06
   31.2000008       2.26201769E-06
   31.3199997       1.94001245E-06
   31.4400005       1.57464501E-06
   31.5599995       1.17966681E-06
   31.6800003       7.69107771E-07
   31.7999992       3.56809608E-07
   31.9200001      -4.39914594E-08
   32.0400009      -4.21037754E-07
   32.1599998      -7.63381877E-07
   32.2799988      -1.06167738E-06
   32.4000015      -1.30842534E-06
   32.5200005      -1.49817060E-06
   32.6399994      -1.62763456E-06
   32.7599983      -1.69577299E-06
   32.8800011      -1.70374710E-06
   33.0000000      -1.65479946E-06
   33.1199989      -1.55403302E-06
   33.2400017      -1.40810141E-06
   33.3600006      -1.22482504E-06
   33.4799995      -1.01275907E-06
   33.5999985      -7.80741743E-07
   33.7200012      -5.37457424E-07
   33.8400002      -2.91045353E-07
   33.9599991      -4.87828586E-08
   34.0800018       1.83138937E-07
   34.2000008       3.99736365E-07
   34.3199997       5.97253063E-07
   34.4399986       7.73088800E-07
   34.5600014       9.25656821E-07
   34.6800003       1.05419360E-06
   34.7999992       1.15854721E-06
   34.9199982       1.23896984E-06
   35.0400009       1.29593445E-06
   35.1599998       1.32999276E-06
   35.2799988       1.34168090E-06
   35.4000015       1.33147591E-06
   35.5200005       1.29979753E-06
   35.6399994       1.24704582E-06
   35.7599983       1.17366301E-06
   35.8800011       1.08020481E-06
   36.0000000       9.67409733E-07
   36.1199989       8.36256106E-07
   36.2400017       6.87999773E-07
   36.3600006       5.24189943E-07
   36.4799995       3.46664478E-07
   36.5999985       1.57529897E-07
   36.7200012      -4.08663077E-08
   36.8400002      -2.45963861E-07
   36.9599991      -4.55008291E-07
   37.0800018      -6.65056348E-07
   37.2000008      -8.72964506E-07
   37.3199997      -1.07536550E-06
   37.4399986      -1.26863927E-06
   37.5600014      -1.44889077E-06
   37.6800003      -1.61195067E-06
   37.7999992      -1.75341233E-06
   37.9199982      -1.86871807E-06
   38.0400009      -1.95330222E-06
   38.1599998      -2.00278805E-06
   38.2799988      -2.01323178E-06
   38.4000015      -1.98139105E-06
   38.5200005      -1.90499952E-06
   38.6399994      -1.78301127E-06
   38.7599983      -1.61579112E-06
   38.8800011      -1.40522627E-06
   39.0000000      -1.15474234E-06
   39.1199989      -8.69217445E-07
   39.2400017      -5.54804899E-07
   39.3600006      -2.18677329E-07
   39.4799995       1.31277474E-07
   39.5999985       4.86779811E-07
   39.7200012       8.39467361E-07
   39.8400002       1.18116350E-06
   39.9599991       1.50408357E-06
   40.0800018       1.80097220E-06
   40.2000008       2.06517075E-06
   40.3199997       2.29063062E-06
   40.4399986       2.47189496E-06
   40.5600014       2.60407091E-06
   40.6800003       2.68282656E-06
   40.7999992       2.70443206E-06
   40.9199982       2.66586403E-06
   41.0400009       2.56497879E-06
   41.1599998       2.40074951E-06
   41.2799988       2.17355114E-06
   41.4000015       1.88546153E-06
   41.5200005       1.54054567E-06
   41.6399994       1.14508202E-06
   41.7599983       7.07689082E-07
   41.8800011       2.39318155E-07
   42.0000000      -2.46913856E-07
   42.1199989      -7.36065090E-07
   42.2400017      -1.21188145E-06
   42.3600006      -1.65746178E-06
   42.4799995      -2.05604306E-06
   42.5999985      -2.39185624E-06
   42.7200012      -2.65099766E-06
   42.8400002      -2.82225278E-06
   42.9599991      -2.89781156E-06
   43.0800018      -2.87382045E-06
   43.2000008      -2.75072534E-06
   43.3199997      -2.53337953E-06
   43.4399986      -2.23090137E-06
   43.5600014      -1.85629040E-06
   43.6800003      -1.42582383E-06
   43.7999992      -9.58271016E-07
   43.9199982      -4.73973813E-07
   44.0400009       6.15163032E-09
   44.1599998       4.61636660E-07
   44.2799988       8.73448812E-07
   44.4000015       1.22489871E-06
   44.5200005       1.50242249E-06
   44.6399994       1.69620603E-06
   44.7599983       1.80062693E-06
   44.8800011       1.81449877E-06
   45.0000000       1.74111040E-06
   45.1199989       1.58806142E-06
   45.2400017       1.36689857E-06
   45.3600006       1.09256382E-06
   45.4799995       7.82672601E-07
   45.5999985       4.56641374E-07
   45.7200012       1.34691490E-07
   45.8400002      -1.63234375E-07
   45.9599991      -4.18600905E-07
   46.0800018      -6.15400552E-07
   46.2000008      -7.41203280E-07
   46.3199997      -7.88064028E-07
   46.4399986      -7.53213783E-07
   46.5600014      -6.39462201E-07
   46.6800003      -4.55246322E-07
   46.7999992      -2.14284356E-07
   46.9199982       6.51832863E-08
   47.0400009       3.61544664E-07
   47.1599998       6.51300297E-07
   47.2799988       9.10780841E-07
   47.4000015       1.11796555E-06
   47.5200005       1.25424663E-06
   47.6399994       1.30597493E-06
   47.7599983       1.26563498E-06
   47.8800011       1.13252725E-06
   48.0000000       9.12874839E-07
   48.1199989       6.19338380E-07
   48.2400017       2.69977050E-07
   48.3600006      -1.13244887E-07
   48.4799995      -5.06256981E-07
   48.5999985      -8.84807548E-07
   48.7200012      -1.22632389E-06
   48.8400002      -1.51152983E-06
   48.9599991      -1.72567479E-06
   49.0800018      -1.85927706E-06
   49.2000008      -1.90834521E-06
   49.3199997      -1.87409944E-06
   49.4399986      -1.76227081E-06
   49.5600014      -1.58209957E-06
   49.6800003      -1.34517518E-06
   49.7999992      -1.06427046E-06
   49.9199982      -7.52302753E-07
   50.0400009      -4.21527773E-07
   50.1599998      -8.30292350E-08
   50.2799988       2.53480664E-07
   50.4000015       5.79580444E-07
   50.5200005       8.87848785E-07
   50.6399994       1.17146124E-06
   50.7599983       1.42378474E-06
   50.8800011       1.63807420E-06
   51.0000000       1.80736049E-06
   51.1199989       1.92458037E-06
   51.2400017       1.98296812E-06
   51.3600006       1.97667123E-06
   51.4799995       1.90152957E-06
   51.5999985       1.75590606E-06
   51.7200012       1.54145584E-06
   51.8400002       1.26370151E-06
   51.9599991       9.32307842E-07
   52.0800018       5.60971046E-07
   52.2000008       1.66883765E-07
   52.3199997      -2.30214596E-07
   52.4399986      -6.09340930E-07
   52.5600014      -9.49817263E-07
   52.6800003      -1.23292148E-06
   52.7999992      -1.44347621E-06
   52.9199982      -1.57121212E-06
   53.0400009      -1.61175478E-06
   53.1599998      -1.56712281E-06
   53.2799988      -1.44566934E-06
   53.4000015      -1.26145517E-06
   53.5200005      -1.03309719E-06
   53.6399994      -7.82189034E-07
   53.7599983      -5.31432477E-07
   53.8800011      -3.02647180E-07
   54.0000000      -1.14838862E-07
   54.1199989       1.74992731E-08
   54.2400017       8.56964419E-08
   54.3600006       8.77052102E-08
   54.4799995       2.83178210E-08
   54.5999985      -8.12264744E-08
   54.7200012      -2.24213650E-07
   54.8400002      -3.79926263E-07
   54.9599991      -5.25489270E-07
   55.0800018      -6.37930611E-07
   55.2000008      -6.96277652E-07
   55.3199997      -6.83505277E-07
   55.4399986      -5.88162948E-07
   55.5600014      -4.05535275E-07
   55.6800003      -1.38233929E-07
   55.7999992       2.03832755E-07
   55.9199982       6.04106901E-07
   56.0400009       1.04058404E-06
   56.1599998       1.48746142E-06
   56.2799988       1.91707886E-06
   56.4000015       2.30198384E-06
   56.5200005       2.61693299E-06
   56.6399994       2.84066937E-06
   56.7599983       2.95733253E-06
   56.8800011       2.95740097E-06
   57.0000000       2.83811937E-06
   57.1199989       2.60340948E-06
   57.2400017       2.26331190E-06
   57.3600006       1.83304599E-06
   57.4799995       1.33180117E-06
   57.5999985       7.81389360E-07
   57.7200012       2.04881474E-07
   57.8400002      -3.74661056E-07
   57.9599991      -9.35274727E-07
   58.0800018      -1.45695151E-06
   58.2000008      -1.92224775E-06
   58.3199997      -2.31665990E-06
   58.4399986      -2.62880803E-06
   58.5600014      -2.85047986E-06
   58.6800003      -2.97659699E-06
   58.7999992      -3.00515103E-06
   58.9199982      -2.93714584E-06
   59.0400009      -2.77655818E-06
   59.1599998      -2.53030203E-06
   59.2799988      -2.20816628E-06
   59.4000015      -1.82267968E-06
   59.5200005      -1.38885275E-06
   59.6399994      -9.23753191E-07
   59.7599983      -4.45894784E-07
   59.8800011       2.55610182E-08
   60.0000000       4.71755413E-07
   60.1199989       8.75171054E-07
   60.2400017       1.22067104E-06
   60.3600006       1.49643529E-06
   60.4799995       1.69469035E-06
   60.5999985       1.81214386E-06
   60.7200012       1.85005877E-06
   60.8400002       1.81394773E-06
   60.9599991       1.71290264E-06
   61.0800018       1.55862801E-06
   61.2000008       1.36427605E-06
   61.3199997       1.14321222E-06
   61.4399986       9.07845561E-07
   61.5600014       6.68653854E-07
   61.6800003       4.33509712E-07
   61.7999992       2.07374057E-07
   61.9199982      -7.61768693E-09
   62.0400009      -2.11702783E-07
   62.1599998      -4.06740043E-07
   62.2799988      -5.95266556E-07
   62.4000015      -7.79490108E-07
   62.5200005      -9.60353191E-07
   62.6399994      -1.13679607E-06
   62.7599983      -1.30532169E-06
   62.8800011      -1.45992851E-06
   63.0000000      -1.59243427E-06
   63.1199989      -1.69316093E-06
   63.2400017      -1.75191337E-06
   63.3600006      -1.75913760E-06
   63.4799995      -1.70712690E-06
   63.5999985      -1.59112915E-06
   63.7200012      -1.41022133E-06
   63.8400002      -1.16783769E-06
   63.9599991      -8.71880843E-07
   64.0800018      -5.34386288E-07
   64.1999969      -1.70770633E-07
   64.3199997       2.01265536E-07
   64.4400024       5.63065782E-07
   64.5599976       8.96439190E-07
   64.6800003       1.18502874E-06
   64.8000031       1.41549060E-06
   64.9199982       1.57837451E-06
   65.0400009       1.66863401E-06
   65.1600037       1.68573911E-06
   65.2799988       1.63341247E-06
   65.4000015       1.51904612E-06
   65.5199966       1.35288929E-06
   65.6399994       1.14710963E-06
   65.7600021       9.14831730E-07
   65.8799973       6.69245196E-07
   66.0000000       4.22848103E-07
   66.1200027       1.86864355E-07
   66.2399979      -2.91562330E-08
   66.3600006      -2.17573429E-07
   66.4800034      -3.72762258E-07
   66.5999985      -4.91130322E-07
   66.7200012      -5.71085934E-07
   66.8399963      -6.12984707E-07
   66.9599991      -6.19063542E-07
   67.0800018      -5.93353775E-07
   67.1999969      -5.41549468E-07
   67.3199997      -4.70798625E-07
   67.4400024      -3.89385121E-07
   67.5599976      -3.06280100E-07
   67.6800003      -2.30562307E-07
   67.8000031      -1.70727475E-07
   67.9199982      -1.33937661E-07
   68.0400009      -1.25279897E-07
   68.1600037      -1.47121497E-07
   68.2799988      -1.98649843E-07
   68.4000015      -2.75678048E-07
   68.5199966      -3.70772540E-07
   68.6399994      -4.73727624E-07
   68.7600021      -5.72371789E-07
   68.8799973      -6.53647987E-07
   69.0000000      -7.04874651E-07
   69.1200027      -7.15062697E-07
   69.2399979      -6.76152808E-07
   69.3600006      -5.84035888E-07
   69.4800034      -4.39238988E-07
   69.5999985      -2.47190741E-07
   69.7200012      -1.80252151E-08
   69.8399963       2.34069233E-07
   69.9599991       4.91900266E-07
   70.0800018       7.36623747E-07
   70.1999969       9.49269179E-07
   70.3199997       1.11229429E-06
   70.4400024       1.21102414E-06
   70.5599976       1.23484608E-06
   70.6800003       1.17805700E-06
   70.8000031       1.04030210E-06
   70.9199982       8.26579821E-07
   71.0400009       5.46834315E-07
   71.1600037       2.15191989E-07
   71.2799988      -1.51071120E-07
   71.4000015      -5.32726631E-07
   71.5199966      -9.09843436E-07
   71.6399994      -1.26298494E-06
   71.7600021      -1.57426393E-06
   71.8799973      -1.82819110E-06
   72.0000000      -2.01228340E-06
   72.1200027      -2.11742781E-06
   72.2399979      -2.13802559E-06
   72.3600006      -2.07195899E-06
   72.4800034      -1.92043876E-06
   72.5999985      -1.68778718E-06
   72.7200012      -1.38120117E-06