  -30.0000000       0.00000000    
  -29.8799992       0.00000000    
  -29.7600002       0.00000000    
  -29.6399994       0.00000000    
  -29.5200005       0.00000000    
  -29.3999996       0.00000000    
  -29.2800007       0.00000000    
  -29.1599998       0.00000000    
  -29.0400009       4.41684472E-33
  -28.9200001       7.82812646E-32
  -28.7999992       6.08077303E-31
  -28.6800003       2.91487071E-30
  -28.5599995       1.00682712E-29
  -28.4400005       2.82138325E-29
  -28.3199997       7.23885385E-29
  -28.2000008       1.84448285E-28
  -28.0799999       4.52034006E-28
  -27.9599991       9.40692844E-28
  -27.8400002       1.33384486E-27
  -27.7199993       1.03304234E-28
  -27.6000004      -6.43067585E-27
  -27.4799995      -2.35570321E-26
  -27.3600006      -5.33495105E-26
  -27.2399998      -8.37386574E-26
  -27.1200008      -7.54841217E-26
  -27.0000000       3.83246716E-26
  -26.8799992       3.17169366E-25
  -26.7600002       7.27929831E-25
  -26.6399994       1.03572654E-24
  -26.5200005       7.66396119E-25
  -26.3999996      -6.06448703E-25
  -26.2800007      -3.13466897E-24
  -26.1599998      -5.63672908E-24
  -26.0400009      -5.23416823E-24
  -25.9200001       1.84832161E-24
  -25.7999992       1.72250903E-23
  -25.6800003       3.50388885E-23
  -25.5599995       3.68429155E-23
  -25.4400005      -7.45788705E-24
  -25.3199997      -1.24450659E-22
  -25.2000008      -3.02486581E-22
  -25.0799999      -4.44293126E-22
  -24.9599991      -3.36529627E-22
  -24.8400002       3.09158148E-22
  -24.7199993       1.68320703E-21
  -24.6000004       3.55716986E-21
  -24.4799995       4.91546828E-21
  -24.3600006       3.81283208E-21
  -24.2399998      -2.13150873E-21
  -24.1200008      -1.42512654E-20
  -24.0000000      -3.04422402E-20
  -23.8799992      -4.27923408E-20
  -23.7600002      -3.71681071E-20
  -23.6399994       2.80119302E-21
  -23.5200005       8.58074904E-20
  -23.3999996       1.98469865E-19
  -23.2800007       2.92668288E-19
  -23.1599998       2.85373434E-19
  -23.0400009       8.25932087E-20
  -22.9200001      -3.67599142E-19
  -22.7999992      -1.00369310E-18
  -22.6800003      -1.59291380E-18
  -22.5599995      -1.73531284E-18
  -22.4400005      -9.75499990E-19
  -22.3199997       9.66198654E-19
  -22.2000008       3.89680361E-18
  -22.0799999       6.91872807E-18
  -21.9599991       8.44249650E-18
  -21.8400002       6.59722116E-18
  -21.7199993       5.99576051E-20
  -21.6000004      -1.08967877E-17
  -21.4799995      -2.35751322E-17
  -21.3600006      -3.27988296E-17
  -21.2399998      -3.20837386E-17
  -21.1200008      -1.60744668E-17
  -21.0000000       1.63267784E-17
  -20.8799992       5.93170622E-17
  -20.7600002       9.94937738E-17
  -20.6399994       1.18249717E-16
  -20.5200005       9.74499428E-17
  -20.3999996       2.71950532E-17
  -20.2800007      -8.68230939E-17
  -20.1599998      -2.19481999E-16
  -20.0400009      -3.28514079E-16
  -19.9200001      -3.63887366E-16
  -19.7999992      -2.82926395E-16
  -19.6800003      -6.75830516E-17
  -19.5599995       2.61113285E-16
  -19.4400005       6.36489038E-16
  -19.3199997       9.51461839E-16
  -19.2000008       1.07747144E-15
  -19.0799999       8.96420262E-16
  -18.9599991       3.41813873E-16
  -18.8400002      -5.58591282E-16
  -18.7199993      -1.65081385E-15
  -18.6000004      -2.64933843E-15
  -18.4799995      -3.17482221E-15
  -18.3600006      -2.84454712E-15
  -18.2399998      -1.40940078E-15
  -18.1200008       1.09256059E-15
  -18.0000000       4.22024637E-15
  -17.8799992       7.11833783E-15
  -17.7600002       8.66568153E-15
  -17.6399994       7.79429723E-15
  -17.5200005       3.92003206E-15
  -17.3999996      -2.64832495E-15
  -17.2800007      -1.04998111E-14
  -17.1599998      -1.72731973E-14
  -17.0400009      -2.02361287E-14
  -16.9200001      -1.71995851E-14
  -16.7999992      -7.50487708E-15
  -16.6800003       7.29129519E-15
  -16.5599995       2.33932458E-14
  -16.4400005       3.55921313E-14
  -16.3199997       3.88329539E-14
  -16.2000008       3.00886601E-14
  -16.0799999       9.88357684E-15
  -15.9600000      -1.71949501E-14
  -15.8400002      -4.33918004E-14
  -15.7200003      -6.00018760E-14
  -15.6000004      -6.02914122E-14
  -15.4799995      -4.21256657E-14
  -15.3599997      -9.26715115E-15
  -15.2399998       2.93183887E-14
  -15.1199999       6.21175407E-14
  -15.0000000       7.88797331E-14
  -14.8800001       7.42289395E-14
  -14.7600002       4.96626123E-14
  -14.6400003       1.30407092E-14
  -14.5200005      -2.43827683E-14
  -14.3999996      -5.22993548E-14
  -14.2799997      -6.52866433E-14
  -14.1599998      -6.45899079E-14
  -14.0400000      -5.67799964E-14
  -13.9200001      -4.96599628E-14
  -13.8000002      -4.71534907E-14
  -13.6800003      -4.56788402E-14
  -13.5600004      -3.42403650E-14
  -13.4399996       9.05401988E-16
  -13.3199997       6.82098692E-14
  -13.1999998       1.62557440E-13
  -13.0799999       2.60811799E-13
  -12.9600000       3.24522256E-13
  -12.8400002       3.10759014E-13
  -12.7200003       1.88721597E-13
  -12.6000004      -4.32850167E-14
  -12.4799995      -3.47356475E-13
  -12.3599997      -6.47777676E-13
  -12.2399998      -8.47342053E-13
  -12.1199999      -8.55384936E-13
  -12.0000000      -6.19863536E-13
  -11.8800001      -1.53031599E-13
  -11.7600002       4.59174853E-13
  -11.6400003       1.06984040E-12
  -11.5200005       1.50514258E-12
  -11.3999996       1.61212460E-12
  -11.2799997       1.30735559E-12
  -11.1599998       6.12040041E-13
  -11.0400000      -3.38352257E-13
  -10.9200001      -1.31580912E-12
  -10.8000002      -2.05070119E-12
  -10.6800003      -2.30175189E-12
  -10.5600004      -1.92879935E-12
  -10.4399996      -9.49324929E-13
  -10.3199997       4.38917240E-13
  -10.1999998       1.88115907E-12
  -10.0799999       2.93723249E-12
  -9.96000004       3.19189857E-12
  -9.84000015       2.38179853E-12
  -9.72000027       5.07255316E-13
  -9.60000038      -2.10619391E-12
  -9.47999954      -4.82576912E-12
  -9.35999966      -6.82213140E-12
  -9.23999977      -7.26198528E-12
  -9.11999989      -5.54536235E-12
  -9.00000000      -1.52929319E-12
  -8.88000011       4.32813377E-12
  -8.76000023       1.09586350E-11
  -8.64000034       1.68357533E-11
  -8.52000046       2.02731078E-11
  -8.39999962       1.98116332E-11
  -8.27999973       1.46079520E-11
  -8.15999985       4.72728974E-12
  -8.03999996      -8.73845787E-12
  -7.92000008      -2.37675522E-11
  -7.80000019      -3.77095681E-11
  -7.67999983      -4.77328420E-11
  -7.55999994      -5.13286601E-11
  -7.44000006      -4.67752781E-11
  -7.32000017      -3.34804337E-11
  -7.19999981      -1.21531812E-11
  -7.07999992       1.52083849E-11
  -6.96000004       4.54973698E-11
  -6.84000015       7.48140577E-11
  -6.71999979       9.88818263E-11
  -6.59999990       1.13530123E-10
  -6.48000002       1.15212402E-10
  -6.36000013       1.01519397E-10
  -6.23999977       7.16325263E-11
  -6.11999989       2.66457030E-11
  -6.00000000      -3.03214849E-11
  -5.88000011      -9.42781200E-11
  -5.76000023      -1.58797656E-10
  -5.63999987      -2.16681478E-10
  -5.51999998      -2.60727329E-10
  -5.40000010      -2.84430340E-10
  -5.28000021      -2.82441792E-10
  -5.15999985      -2.50662241E-10
  -5.03999996      -1.85948743E-10
  -4.92000008      -8.55409424E-11
  -4.80000019       5.35809279E-11
  -4.67999983       2.35140296E-10
  -4.55999994       4.63577010E-10
  -4.44000006       7.43510919E-10
  -4.32000017       1.07871034E-09
  -4.19999981       1.47080048E-09
  -4.07999992       1.91806970E-09
  -3.96000004       2.41476172E-09
  -3.83999991       2.95114555E-09
  -3.72000003       3.51446694E-09
  -3.59999990       4.09064649E-09
  -3.48000002       4.66637395E-09
  -3.35999990       5.23113153E-09
  -3.24000001       5.77868731E-09
  -3.11999989       6.30774899E-09
  -3.00000000       6.82169521E-09
  -2.88000011       7.32755590E-09
  -2.75999999       7.83459075E-09
  -2.64000010       8.35288461E-09
  -2.51999998       8.89230378E-09
  -2.40000010       9.46198853E-09
  -2.27999997       1.00703428E-08
  -2.16000009       1.07253095E-08
  -2.03999996       1.14346594E-08
  -1.91999996       1.22060806E-08
  -1.79999995       1.30470257E-08
  -1.67999995       1.39643817E-08
  -1.55999994       1.49642521E-08
  -1.44000006       1.60520308E-08
  -1.32000005       1.72328924E-08
  -1.20000005       1.85125835E-08
  -1.08000004       1.98982004E-08
 -0.959999979       2.13985363E-08
 -0.839999974       2.30236825E-08
 -0.720000029       2.47837750E-08
 -0.600000024       2.66871396E-08
 -0.479999989       2.87384498E-08
 -0.360000014       3.09376240E-08
 -0.239999995       3.32800880E-08
 -0.119999997       3.57586529E-08
  -1.11022302E-15   3.83667640E-08
  0.119999997       4.11023038E-08
  0.239999995       4.39708110E-08
  0.360000014       4.69870614E-08
  0.479999989       5.01743571E-08
  0.600000024       5.35616564E-08
  0.720000029       5.71792995E-08
  0.839999974       6.10547488E-08
  0.959999979       6.52097256E-08
   1.08000004       6.96598832E-08
   1.20000005       7.44170805E-08
   1.32000005       7.94937094E-08
   1.44000006       8.49075192E-08
   1.55999994       9.06853259E-08
   1.67999995       9.68642979E-08
   1.79999995       1.03490258E-07
   1.91999996       1.10613577E-07
   2.03999996       1.18283879E-07
   2.16000009       1.26545260E-07
   2.27999997       1.35433439E-07
   2.40000010       1.44975289E-07
   2.51999998       1.55190762E-07
   2.64000010       1.66095660E-07
   2.75999999       1.77704379E-07
   2.88000011       1.90031400E-07
   3.00000000       2.03091062E-07
   3.11999989       2.16896538E-07
   3.24000001       2.31459026E-07
   3.35999990       2.46788119E-07
   3.48000002       2.62894588E-07
   3.59999990       2.79794875E-07
   3.72000003       2.97516465E-07
   3.83999991       3.16102359E-07
   3.96000004       3.35612896E-07
   4.07999992       3.56124389E-07
   4.19999981       3.77723950E-07
   4.32000017       4.00502927E-07
   4.44000006       4.24549825E-07
   4.55999994       4.49945588E-07
   4.67999983       4.76761841E-07
   4.80000019       5.05062872E-07
   4.92000008       5.34909702E-07
   5.03999996       5.66364861E-07
   5.15999985       5.99495763E-07
   5.28000021       6.34375169E-07
   5.40000010       6.71079306E-07
   5.51999998       7.09683604E-07
   5.63999987       7.50258948E-07
   5.76000023       7.92870310E-07
   5.88000011       8.37577545E-07
   6.00000000       8.84440681E-07
   6.11999989       9.33526564E-07
   6.23999977       9.84915459E-07
   6.36000013       1.03870525E-06
   6.48000002       1.09501207E-06
   6.59999990       1.15396597E-06
   6.71999979       1.21570406E-06
   6.84000015       1.28036152E-06
   6.96000004       1.34806487E-06
   7.07999992       1.41892679E-06
   7.19999981       1.49304617E-06
   7.32000017       1.57051170E-06
   7.44000006       1.65140716E-06
   7.55999994       1.73581850E-06
   7.67999983       1.82383997E-06
   7.80000019       1.91557729E-06
   7.92000008       2.01115131E-06
   8.03999996       2.11069528E-06
   8.15999985       2.21435585E-06
   8.27999973       2.32228717E-06
   8.39999962       2.43464865E-06
   8.52000046       2.55159898E-06
   8.64000034       2.67329187E-06
   8.76000023       2.79986989E-06
   8.88000011       2.93146331E-06
   9.00000000       3.06818765E-06
   9.11999989       3.21014568E-06
   9.23999977       3.35743380E-06
   9.35999966       3.51014978E-06
   9.47999954       3.66839959E-06
   9.60000038       3.83230508E-06
   9.72000027       4.00200634E-06
   9.84000015       4.17765705E-06
   9.96000004       4.35941865E-06
   10.0799999       4.54744986E-06
   10.1999998       4.74189665E-06
   10.3199997       4.94288543E-06
   10.4399996       5.15052352E-06
   10.5600004       5.36490370E-06
   10.6800003       5.58611237E-06
   10.8000002       5.81424365E-06
   10.9200001       6.04940533E-06
   11.0400000       6.29172564E-06
   11.1599998       6.54134783E-06
   11.2799997       6.79842424E-06
   11.3999996       7.06310175E-06
   11.5200005       7.33551224E-06
   11.6400003       7.61576393E-06
   11.7600002       7.90393642E-06
   11.8800001       8.20008427E-06
   12.0000000       8.50424476E-06
   12.1199999       8.81644246E-06
   12.2399998       9.13670010E-06
   12.3599997       9.46504042E-06
   12.4799995       9.80149343E-06
   12.6000004       1.01460910E-05
   12.7200003       1.04988630E-05
   12.8400002       1.08598324E-05
   12.9600000       1.12290090E-05
   13.0799999       1.16063884E-05
   13.1999998       1.19919459E-05
   13.3199997       1.23856398E-05
   13.4399996       1.27874073E-05
   13.5600004       1.31971683E-05
   13.6800003       1.36148319E-05
   13.8000002       1.40402954E-05
   13.9200001       1.44734513E-05
   14.0400000       1.49141888E-05
   14.1599998       1.53623932E-05
   14.2799997       1.58179446E-05
   14.3999996       1.62807119E-05
   14.5200005       1.67505495E-05
   14.6400003       1.72272976E-05
   14.7600002       1.77107650E-05
   14.8800001       1.82007443E-05
   15.0000000       1.86970010E-05
   15.1199999       1.91992949E-05
   15.2399998       1.97073696E-05
   15.3599997       2.02209594E-05
   15.4799995       2.07397861E-05
   15.6000004       2.12635641E-05
   15.7200003       2.17919805E-05
   15.8400002       2.23246971E-05
   15.9600000       2.28613462E-05
   16.0799999       2.34015188E-05
   16.2000008       2.39447818E-05
   16.3199997       2.44906823E-05
   16.4400005       2.50387438E-05
   16.5599995       2.55884897E-05
   16.6800003       2.61394325E-05
   16.7999992       2.66910847E-05
   16.9200001       2.72429570E-05
   17.0400009       2.77945492E-05
   17.1599998       2.83453501E-05
   17.2800007       2.88948268E-05
   17.3999996       2.94424135E-05
   17.5200005       2.99875155E-05
   17.6399994       3.05295034E-05
   17.7600002       3.10677242E-05
   17.8799992       3.16015030E-05
   18.0000000       3.21301668E-05
   18.1200008       3.26530353E-05
   18.2399998       3.31694391E-05
   18.3600006       3.36787125E-05
   18.4799995       3.41801533E-05
   18.6000004       3.46730449E-05
   18.7199993       3.51566050E-05
   18.8400002       3.56300079E-05
   18.9599991       3.60923768E-05
   19.0799999       3.65427986E-05
   19.2000008       3.69803565E-05
   19.3199997       3.74041556E-05
   19.4400005       3.78133227E-05
   19.5599995       3.82070284E-05
   19.6800003       3.85844432E-05
   19.7999992       3.89447741E-05
   19.9200001       3.92871843E-05
   20.0400009       3.96108189E-05
   20.1599998       3.99147648E-05
   20.2800007       4.01980869E-05
   20.3999996       4.04598177E-05
   20.5200005       4.06989966E-05
   20.6399994       4.09146560E-05
   20.7600002       4.11058572E-05
   20.8799992       4.12716836E-05
   21.0000000       4.14112292E-05
   21.1200008       4.15236100E-05
   21.2399998       4.16079165E-05
   21.3600006       4.16632392E-05
   21.4799995       4.16886433E-05
   21.6000004       4.16831863E-05
   21.7199993       4.16458970E-05
   21.8400002       4.15757968E-05
   21.9599991       4.14718961E-05
   22.0799999       4.13331982E-05
   22.2000008       4.11586989E-05
   22.3199997       4.09473796E-05
   22.4400005       4.06982144E-05
   22.5599995       4.04101884E-05
   22.6800003       4.00822973E-05
   22.7999992       3.97135518E-05
   22.9200001       3.93030059E-05
   23.0400009       3.88497283E-05
   23.1599998       3.83528131E-05
   23.2800007       3.78113655E-05
   23.3999996       3.72245049E-05
   23.5200005       3.65913183E-05
   23.6399994       3.59108999E-05
   23.7600002       3.51823182E-05
   23.8799992       3.44046348E-05
   24.0000000       3.35769146E-05
   24.1200008       3.26982190E-05
   24.2399998       3.17676058E-05
   24.3600006       3.07841656E-05
   24.4799995       2.97469960E-05
   24.6000004       2.86552404E-05
   24.7199993       2.75080820E-05
   24.8400002       2.63047605E-05
   24.9599991       2.50445482E-05
   25.0799999       2.37267432E-05
   25.2000008       2.23506413E-05
   25.3199997       2.09155151E-05
   25.4400005       1.94205895E-05
   25.5599995       1.78650334E-05
   25.6800003       1.62479737E-05
   25.7999992       1.45685053E-05
   25.9200001       1.28257179E-05
   26.0400009       1.10187284E-05
   26.1599998       9.14669181E-06
   26.2800007       7.20882190E-06
   26.3999996       5.20438880E-06
   26.5200005       3.13272153E-06
   26.6399994       9.93199251E-07
   26.7600002      -1.21476364E-06
   26.8799992      -3.49173183E-06
   27.0000000      -5.83827250E-06
   27.1200008      -8.25497136E-06
   27.2399998      -1.07424521E-05
   27.3600006      -1.33013818E-05
   27.4799995      -1.59324627E-05
   27.6000004      -1.86364177E-05
   27.7199993      -2.14139691E-05
   27.8400002      -2.42658007E-05
   27.9599991      -2.71925564E-05
   28.0799999      -3.01948148E-05
   28.2000008      -3.32731179E-05
   28.3199997      -3.64279585E-05
   28.4400005      -3.96598225E-05
   28.5599995      -4.29692045E-05
   28.6800003      -4.63565884E-05
   28.7999992      -4.98224763E-05
   28.9200001      -5.33673701E-05
   29.0400009      -5.69917611E-05
   29.1599998      -6.06961112E-05
   29.2800007      -6.44808752E-05
   29.3999996      -6.83464823E-05
   29.5200005      -7.22933546E-05
   29.6399994      -7.63218923E-05
   29.7600002      -8.04324882E-05
   29.8799992      -8.46255352E-05
   30.0000000      -8.89013972E-05
   30.1200008      -9.32604526E-05
   30.2399998      -9.77030722E-05
   30.3600006      -1.02229591E-04
   30.4799995      -1.06840329E-04
   30.6000004      -1.11535592E-04
   30.7199993      -1.16315612E-04
   30.8400002      -1.21180608E-04
   30.9599991      -1.26130733E-04
   31.0799999      -1.31166118E-04
   31.2000008      -1.36286850E-04
   31.3199997      -1.41492957E-04
   31.4400005      -1.46784529E-04
   31.5599995      -1.52161578E-04
   31.6800003      -1.57624148E-04
   31.7999992      -1.63172241E-04
   31.9200001      -1.68805898E-04
   32.0400009      -1.74525063E-04
   32.1599998      -1.80329676E-04
   32.2799988      -1.86219608E-04
   32.4000015      -1.92194711E-04
   32.5200005      -1.98254769E-04
   32.6399994      -2.04399548E-04
   32.7599983      -2.10628830E-04
   32.8800011      -2.16942310E-04
   33.0000000      -2.23339695E-04
   33.1199989      -2.29820653E-04
   33.2400017      -2.36384760E-04
   33.3600006      -2.43031536E-04
   33.4799995      -2.49760400E-04
   33.5999985      -2.56570696E-04
   33.7200012      -2.63461756E-04
   33.8400002      -2.70432851E-04
   33.9599991      -2.77483283E-04
   34.0800018      -2.84612208E-04
   34.2000008      -2.91818811E-04
   34.3199997      -2.99102219E-04
   34.4399986      -3.06461414E-04
   34.5600014      -3.13895289E-04
   34.6800003      -3.21402593E-04
   34.7999992      -3.28982132E-04
   34.9199982      -3.36632540E-04
   35.0400009      -3.44352447E-04
   35.1599998      -3.52140487E-04
   35.2799988      -3.59995145E-04
   35.4000015      -3.67914938E-04
   35.5200005      -3.75898147E-04
   35.6399994      -3.83943086E-04
   35.7599983      -3.92047747E-04
   35.8800011      -4.00210323E-04
   36.0000000      -4.08428721E-04
   36.1199989      -4.16700845E-04
   36.2400017      -4.25024569E-04
   36.3600006      -4.33397683E-04
   36.4799995      -4.41817800E-04
   36.5999985      -4.50282474E-04
   36.7200012      -4.58789204E-04
   36.8400002      -4.67335165E-04
   36.9599991      -4.75917594E-04
   37.0800018      -4.84533521E-04
   37.2000008      -4.93179949E-04
   37.3199997      -5.01853705E-04
   37.4399986      -5.10551617E-04
   37.5600014      -5.19270194E-04
   37.6800003      -5.28006174E-04
   37.7999992      -5.36755775E-04
   37.9199982      -5.45515271E-04
   38.0400009      -5.54280938E-04
   38.1599998      -5.63048816E-04
   38.2799988      -5.71814890E-04
   38.4000015      -5.80575026E-04
   38.5200005      -5.89324976E-04
   38.6399994      -5.98060433E-04
   38.7599983      -6.06776739E-04
   38.8800011      -6.15469355E-04
   39.0000000      -6.24133390E-04
   39.1199989      -6.32763898E-04
   39.2400017      -6.41355873E-04
   39.3600006      -6.49904076E-04
   39.4799995      -6.58403384E-04
   39.5999985      -6.66848617E-04
   39.7200012      -6.75234245E-04
   39.8400002      -6.83554856E-04
   39.9599991      -6.91804744E-04
   40.0800018      -6.99978089E-04
   40.2000008      -7.08069070E-04
   40.3199997      -7.16071576E-04
   40.4399986      -7.23979494E-04
   40.5600014      -7.31786597E-04
   40.6800003      -7.39486655E-04
   40.7999992      -7.47073384E-04
   40.9199982      -7.54540262E-04
   41.0400009      -7.61880830E-04
   41.1599998      -7.69088510E-04
   41.2799988      -7.76156608E-04
   41.4000015      -7.83078547E-04
   41.5200005      -7.89847574E-04
   41.6399994      -7.96456763E-04
   41.7599983      -8.02899245E-04
   41.8800011      -8.09168094E-04
   42.0000000      -8.15256324E-04
   42.1199989      -8.21156893E-04
   42.2400017      -8.26862874E-04
   42.3600006      -8.32367223E-04
   42.4799995      -8.37663072E-04
   42.5999985      -8.42743437E-04
   42.7200012      -8.47601565E-04
   42.8400002      -8.52230412E-04
   42.9599991      -8.56623054E-04
   43.0800018      -8.60772619E-04
   43.2000008      -8.64672242E-04
   43.3199997      -8.68315110E-04
   43.4399986      -8.71694472E-04
   43.5600014      -8.74803925E-04
   43.6800003      -8.77636950E-04
   43.7999992      -8.80187377E-04
   43.9199982      -8.82448920E-04
   44.0400009      -8.84415407E-04
   44.1599998      -8.86081078E-04
   44.2799988      -8.87439935E-04
   44.4000015      -8.88486276E-04
   44.5200005      -8.89214629E-04
   44.6399994      -8.89619638E-04
   44.7599983      -8.89696123E-04
   44.8800011      -8.89439136E-04
   45.0000000      -8.88844021E-04
   45.1199989      -8.87906062E-04
   45.2400017      -8.86621187E-04
   45.3600006      -8.84985377E-04
   45.4799995      -8.82995024E-04
   45.5999985      -8.80646636E-04
   45.7200012      -8.77937302E-04
   45.8400002      -8.74864229E-04
   45.9599991      -8.71424854E-04
   46.0800018      -8.67617026E-04
   46.2000008      -8.63438705E-04
   46.3199997      -8.58888146E-04
   46.4399986      -8.53963953E-04
   46.5600014      -8.48665251E-04
   46.6800003      -8.42991460E-04
   46.7999992      -8.36942578E-04
   46.9199982      -8.30518780E-04
   47.0400009      -8.23720824E-04
   47.1599998      -8.16549873E-04
   47.2799988      -8.09007208E-04
   47.4000015      -8.01094749E-04
   47.5200005      -7.92814419E-04
   47.6399994      -7.84169009E-04
   47.7599983      -7.75161316E-04
   47.8800011      -7.65795005E-04
   48.0000000      -7.56073860E-04
   48.1199989      -7.46002363E-04
   48.2400017      -7.35585170E-04
   48.3600006      -7.24827463E-04
   48.4799995      -7.13734655E-04
   48.5999985      -7.02312624E-04
   48.7200012      -6.90567715E-04
   48.8400002      -6.78506447E-04
   48.9599991      -6.66136155E-04
   49.0800018      -6.53464464E-04
   49.2000008      -6.40499580E-04
   49.3199997      -6.27249945E-04
   49.4399986      -6.13724580E-04
   49.5600014      -5.99932682E-04
   49.6800003      -5.85883739E-04
   49.7999992      -5.71587763E-04
   49.9199982      -5.57055057E-04
   50.0400009      -5.42296271E-04
   50.1599998      -5.27322292E-04
   50.2799988      -5.12144587E-04
   50.4000015      -4.96774854E-04
   50.5200005      -4.81224968E-04
   50.6399994      -4.65507299E-04
   50.7599983      -4.49634274E-04
   50.8800011      -4.33618523E-04
   51.0000000      -4.17473057E-04
   51.1199989      -4.01211058E-04
   51.2400017      -3.84846062E-04
   51.3600006      -3.68391833E-04
   51.4799995      -3.51862225E-04
   51.5999985      -3.35271208E-04
   51.7200012      -3.18632927E-04
   51.8400002      -3.01961525E-04
   51.9599991      -2.85271293E-04
   52.0800018      -2.68576579E-04
   52.2000008      -2.51891819E-04
   52.3199997      -2.35231520E-04
   52.4399986      -2.18610250E-04
   52.5600014      -2.02042487E-04
   52.6800003      -1.85542653E-04
   52.7999992      -1.69125080E-04
   52.9199982      -1.52804016E-04
   53.0400009      -1.36593633E-04
   53.1599998      -1.20508033E-04
   53.2799988      -1.04561259E-04
   53.4000015      -8.87672068E-05
   53.5200005      -7.31395994E-05
   53.6399994      -5.76919447E-05
   53.7599983      -4.24374994E-05
   53.8800011      -2.73892038E-05
   54.0000000      -1.25597107E-05
   54.1199989       2.03861964E-06
   54.2400017       1.63937311E-05
   54.3600006       3.04938731E-05
   54.4799995       4.43275967E-05
   54.5999985       5.78837753E-05
   54.7200012       7.11516259E-05
   54.8400002       8.41207511E-05
   54.9599991       9.67811575E-05
   55.0800018       1.09123328E-04
   55.2000008       1.21138277E-04
   55.3199997       1.32817469E-04
   55.4399986       1.44152888E-04
   55.5600014       1.55136950E-04
   55.6800003       1.65762482E-04
   55.7999992       1.76022761E-04
   55.9199982       1.85911485E-04
   56.0400009       1.95422836E-04
   56.1599998       2.04551499E-04
   56.2799988       2.13292762E-04
   56.4000015       2.21642535E-04
   56.5200005       2.29597325E-04
   56.6399994       2.37154265E-04
   56.7599983       2.44311057E-04
   56.8800011       2.51065940E-04
   57.0000000       2.57417705E-04
   57.1199989       2.63365539E-04
   57.2400017       2.68909265E-04
   57.3600006       2.74049089E-04
   57.4799995       2.78785854E-04
   57.5999985       2.83120840E-04
   57.7200012       2.87055882E-04
   57.8400002       2.90593307E-04
   57.9599991       2.93735968E-04
   58.0800018       2.96487240E-04
   58.2000008       2.98851111E-04
   58.3199997       3.00831976E-04
   58.4399986       3.02434870E-04
   58.5600014       3.03665205E-04
   58.6800003       3.04528949E-04
   58.7999992       3.05032387E-04
   58.9199982       3.05182301E-04
   59.0400009       3.04985791E-04
   59.1599998       3.04450426E-04
   59.2799988       3.03584005E-04
   59.4000015       3.02394765E-04
   59.5200005       3.00891232E-04
   59.6399994       2.99082283E-04
   59.7599983       2.96977116E-04
   59.8800011       2.94585188E-04
   60.0000000       2.91916280E-04
   60.1199989       2.88980518E-04
   60.2400017       2.85788177E-04
   60.3600006       2.82349938E-04
   60.4799995       2.78676423E-04
   60.5999985       2.74778489E-04
   60.7200012       2.70666933E-04
   60.8400002       2.66352698E-04
   60.9599991       2.61846901E-04
   61.0800018       2.57160718E-04
   61.2000008       2.52305472E-04
   61.3199997       2.47292744E-04
   61.4399986       2.42134091E-04
   61.5600014       2.36841064E-04
   61.6800003       2.31425205E-04
   61.7999992       2.25897849E-04
   61.9199982       2.20270274E-04
   62.0400009       2.14553627E-04
   62.1599998       2.08758982E-04
   62.2799988       2.02897325E-04
   62.4000015       1.96979658E-04
   62.5200005       1.91016792E-04
   62.6399994       1.85019424E-04
   62.7599983       1.78998031E-04
   62.8800011       1.72962842E-04
   63.0000000       1.66923826E-04
   63.1199989       1.60890719E-04
   63.2400017       1.54873036E-04
   63.3600006       1.48880121E-04
   63.4799995       1.42921112E-04
   63.5999985       1.37004914E-04
   63.7200012       1.31140187E-04
   63.8400002       1.25335253E-04
   63.9599991       1.19598051E-04
   64.0800018       1.13936221E-04
   64.1999969       1.08357017E-04
   64.3199997       1.02867365E-04
   64.4400024       9.74738723E-05
   64.5599976       9.21828614E-05
   64.6800003       8.70002987E-05
   64.8000031       8.19318229E-05
   64.9199982       7.69827166E-05
   65.0400009       7.21578908E-05
   65.1600037       6.74619296E-05
   65.2799988       6.28990529E-05
   65.4000015       5.84731679E-05
   65.5199966       5.41878726E-05
   65.6399994       5.00464375E-05
   65.7600021       4.60517840E-05
   65.8799973       4.22064950E-05
   66.0000000       3.85127641E-05
   66.1200027       3.49724032E-05
   66.2399979       3.15868710E-05
   66.3600006       2.83572808E-05
   66.4800034       2.52844602E-05
   66.5999985       2.23689694E-05
   66.7200012       1.96111178E-05
   66.8399963       1.70109615E-05
   66.9599991       1.45682670E-05
   67.0800018       1.22824813E-05
   67.1999969       1.01527048E-05
   67.3199997       8.17769978E-06
   67.4400024       6.35592096E-06
   67.5599976       4.68556982E-06
   67.6800003       3.16465412E-06
   67.8000031       1.79102824E-06
   67.9199982       5.62405546E-07
   68.0400009      -5.23660788E-07
   68.1600037      -1.46980835E-06
   68.2799988      -2.27889768E-06
   68.4000015      -2.95401674E-06
   68.5199966      -3.49846187E-06
   68.6399994      -3.91569893E-06
   68.7600021      -4.20932020E-06
   68.8799973      -4.38302141E-06
   69.0000000      -4.44059515E-06
   69.1200027      -4.38594543E-06
   69.2399979      -4.22310177E-06
   69.3600006      -3.95621237E-06
   69.4800034      -3.58952298E-06
   69.5999985      -3.12732982E-06
   69.7200012      -2.57393663E-06
   69.8399963      -1.93362916E-06
   69.9599991      -1.21067808E-06
   70.0800018      -4.09365526E-07
   70.1999969       4.65980492E-07
   70.3199997       1.41096768E-06
   70.4400024       2.42114470E-06
   70.5599976       3.49203469E-06
   70.6800003       4.61917989E-06
   70.8000031       5.79817834E-06
   70.9199982       7.02470152E-06
   71.0400009       8.29448982E-06
   71.1600037       9.60334091E-06
   71.2799988       1.09470975E-05
   71.4000015       1.23216632E-05
   71.5199966       1.37230327E-05
   71.6399994       1.51473150E-05
   71.7600021       1.65907586E-05
   71.8799973       1.80497373E-05
   72.0000000       1.95206994E-05
   72.1200027       2.10001308E-05
   72.2399979       2.24845116E-05
   72.3600006       2.39703168E-05
   72.4800034       2.54540719E-05
   72.5999985       2.69324064E-05
   72.7200012       2.84021498E-05