  -30.0000000       0.00000000    
  -29.8799992       0.00000000    
  -29.7600002       0.00000000    
  -29.6399994       0.00000000    
  -29.5200005      -8.64601152E-43
  -29.3999996      -1.90646656E-41
  -29.2800007       5.31386391E-41
  -29.1599998       5.75567930E-40
  -29.0400009       8.76938184E-40
  -28.9200001      -3.24644280E-39
  -28.7999992      -1.55579456E-38
  -28.6800003      -2.00451864E-38
  -28.5599995       3.45058845E-38
  -28.4400005       1.81646206E-37
  -28.3199997       2.76271059E-37
  -28.2000008      -1.27404756E-37
  -28.0799999      -1.45376407E-36
  -27.9599991      -3.01558676E-36
  -27.8400002      -1.75490207E-36
  -27.7199993       6.98842082E-36
  -27.6000004       2.39140608E-35
  -27.4799995       3.59577380E-35
  -27.3600006       1.10489804E-35
  -27.2399998      -8.59498281E-35
  -27.1200008      -2.44935692E-34
  -27.0000000      -3.48731797E-34
  -26.8799992      -1.62760853E-34
  -26.7600002       5.37563852E-34
  -26.6399994       1.67733162E-33
  -26.5200005       2.57125081E-33
  -26.3999996       1.91951707E-33
  -26.2800007      -1.54034337E-33
  -26.1599998      -7.70809335E-33
  -26.0400009      -1.37713997E-32
  -25.9200001      -1.41102463E-32
  -25.7999992      -2.68026267E-33
  -25.6800003       2.21263243E-32
  -25.5599995       5.23195550E-32
  -25.4400005       6.89268804E-32
  -25.3199997       4.82829368E-32
  -25.2000008      -2.35534288E-32
  -25.0799999      -1.33757762E-31
  -24.9599991      -2.33884726E-31
  -24.8400002      -2.50346466E-31
  -24.7199993      -1.17975046E-31
  -24.6000004       1.73183373E-31
  -24.4799995       5.41006746E-31
  -24.3600006       8.11732546E-31
  -24.2399998       7.74154578E-31
  -24.1200008       2.79646203E-31
  -24.0000000      -6.47698187E-31
  -23.8799992      -1.74342043E-30
  -23.7600002      -2.52558441E-30
  -23.6399994      -2.42934321E-30
  -23.5200005      -1.03449493E-30
  -23.3999996       1.67215106E-30
  -23.2800007       5.08736915E-30
  -23.1599998       7.93904284E-30
  -23.0400009       8.49347744E-30
  -22.9200001       5.09244315E-30
  -22.7999992      -3.00122121E-30
  -22.6800003      -1.46390627E-29
  -22.5599995      -2.61142920E-29
  -22.4400005      -3.13649217E-29
  -22.3199997      -2.35940757E-29
  -22.2000008       1.57075433E-30
  -22.0799999       4.20804709E-29
  -21.9599991       8.63247181E-29
  -21.8400002       1.13205584E-28
  -21.7199993       9.74772728E-29
  -21.6000004       2.07147683E-29
  -21.4799995      -1.14646288E-28
  -21.3600006      -2.73951040E-28
  -21.2399998      -3.89249966E-28
  -21.1200008      -3.74905134E-28
  -21.0000000      -1.61100850E-28
  -20.8799992       2.61973706E-28
  -20.7600002       8.05572873E-28
  -20.6399994       1.27132080E-27
  -20.5200005       1.38719996E-27
  -20.3999996       8.97637043E-28
  -20.2800007      -3.06981389E-28
  -20.1599998      -2.06120283E-27
  -20.0400009      -3.85468407E-27
  -19.9200001      -4.88239496E-27
  -19.7999992      -4.25190674E-27
  -19.6800003      -1.33432221E-27
  -19.5599995       3.82258922E-27
  -19.4400005       1.01653787E-26
  -19.3199997       1.55701375E-26
  -19.2000008       1.71971770E-26
  -19.0799999       1.23211137E-26
  -18.9599991      -4.74581687E-28
  -18.8400002      -2.00477859E-26
  -18.7199993      -4.18685152E-26
  -18.6000004      -5.81429314E-26
  -18.4799995      -5.93007388E-26
  -18.3600006      -3.69210323E-26
  -18.2399998       1.23460291E-26
  -18.1200008       8.28957965E-26
  -18.0000000       1.57838778E-25
  -17.8799992       2.09879969E-25
  -17.7600002       2.06654514E-25
  -17.6399994       1.20689272E-25
  -17.5200005      -5.75091125E-26
  -17.3999996      -3.06669110E-25
  -17.2800007      -5.67297438E-25
  -17.1599998      -7.45062510E-25
  -17.0400009      -7.29165779E-25
  -16.9200001      -4.26222878E-25
  -16.7999992       1.95457558E-25
  -16.6800003       1.06279088E-24
  -16.5599995       1.97290405E-24
  -16.4400005       2.60454399E-24
  -16.3199997       2.57954045E-24
  -16.2000008       1.57586138E-24
  -16.0799999      -5.24652505E-25
  -15.9600000      -3.49174686E-24
  -15.8400002      -6.66020353E-24
  -15.7200003      -8.96096842E-24
  -15.6000004      -9.11516864E-24
  -15.4799995      -5.99867582E-24
  -15.3599997       8.72991737E-25
  -15.2399998       1.08566477E-23
  -15.1199999       2.18642613E-23
  -15.0000000       3.04122445E-23
  -14.8800001       3.21953573E-23
  -14.7600002       2.32321840E-23
  -14.6400003       1.44861161E-24
  -14.5200005      -3.16534414E-23
  -14.3999996      -6.97935977E-23
  -14.2799997      -1.01827043E-22
  -14.1599998      -1.13341301E-22
  -14.0400000      -9.01783693E-23
  -13.9200001      -2.35621708E-23
  -13.8000002       8.42050514E-23
  -13.6800003       2.15205546E-22
  -13.5600004       3.34668370E-22
  -13.4399996       3.95030063E-22
  -13.3199997       3.46391777E-22
  -13.1999998       1.52766044E-22
  -13.0799999      -1.88775854E-22
  -12.9600000      -6.31295368E-22
  -12.8400002      -1.07039342E-21
  -12.7200003      -1.35275554E-21
  -12.6000004      -1.30547236E-21
  -12.4799995      -7.85863284E-22
  -12.3599997       2.55531081E-22
  -12.2399998       1.71396407E-21
  -12.1199999       3.29301753E-21
  -12.0000000       4.51421420E-21
  -11.8800001       4.79237912E-21
  -11.7600002       3.58208181E-21
  -11.6400003       5.79268918E-22
  -11.5200005      -4.06346417E-21
  -11.3999996      -9.57314379E-21
  -11.2799997      -1.45223092E-20
  -11.1599998      -1.69956455E-20
  -11.0400000      -1.49950267E-20
  -10.9200001      -7.05967230E-21
  -10.8000002       7.00282786E-21
  -10.6800003       2.54624287E-20
  -10.5600004       4.43375949E-20
  -10.4399996       5.76466563E-20
  -10.3199997       5.84231269E-20
  -10.1999998       4.05155390E-20
  -10.0799999       9.50123461E-22
  -9.96000004      -5.76453122E-20
  -9.84000015      -1.25302793E-19
  -9.72000027      -1.84524349E-19
  -9.60000038      -2.12400698E-19
  -9.47999954      -1.85408515E-19
  -9.35999966      -8.65791594E-20
  -9.23999977       8.61489609E-20
  -9.11999989       3.12479496E-19
  -9.00000000       5.45938015E-19
  -8.88000011       7.16492835E-19
  -8.76000023       7.41676297E-19
  -8.64000034       5.46552921E-19
  -8.52000046       9.03142288E-20
  -8.39999962      -6.05725234E-19
  -8.27999973      -1.43667665E-18
  -8.15999985      -2.20860057E-18
  -8.03999996      -2.65771394E-18
  -7.92000008      -2.49931588E-18
  -7.80000019      -1.50472053E-18
  -7.67999983       4.04674850E-19
  -7.55999994       3.06688338E-18
  -7.44000006       6.02095131E-18
  -7.32000017       8.51205081E-18
  -7.19999981       9.58606956E-18
  -7.07999992       8.28451327E-18
  -6.96000004       3.92569124E-18
  -6.84000015      -3.57300872E-18
  -6.71999979      -1.34081866E-17
  -6.59999990      -2.37373605E-17
  -6.48000002      -3.17612871E-17
  -6.36000013      -3.41182985E-17
  -6.23999977      -2.76100200E-17
  -6.11999989      -1.01913945E-17
  -6.00000000       1.79453393E-17
  -5.88000011       5.34608319E-17
  -5.76000023       8.94635603E-17
  -5.63999987       1.15935411E-16
  -5.51999998       1.21216132E-16
  -5.40000010       9.45736175E-17
  -5.28000021       2.95961617E-17
  -5.15999985      -7.21924262E-17
  -5.03999996      -1.98400448E-16
  -4.92000008      -3.24605181E-16
  -4.80000019      -4.16003318E-16
  -4.67999983      -4.32575226E-16
  -4.55999994      -3.37795442E-16
  -4.44000006      -1.09977898E-16
  -4.32000017       2.45724814E-16
  -4.19999981       6.87613353E-16
  -4.07999992       1.13352797E-15
  -3.96000004       1.46608539E-15
  -3.83999991       1.54933613E-15
  -3.72000003       1.25700706E-15
  -3.59999990       5.09541352E-16
  -3.48000002      -6.86229089E-16
  -3.35999990      -2.20401467E-15
  -3.24000001      -3.78271912E-15
  -3.11999989      -5.03966265E-15
  -3.00000000      -5.52011541E-15
  -2.88000011      -4.78458969E-15
  -2.75999999      -2.52636534E-15
  -2.64000010       1.29877986E-15
  -2.51999998       6.35849041E-15
  -2.40000010       1.18798378E-14
  -2.27999997       1.66702691E-14
  -2.16000009       1.92503145E-14
  -2.03999996       1.81073587E-14
  -1.91999996       1.20535643E-14
  -1.79999995       6.39471494E-16
  -1.67999995      -1.54563167E-14
  -1.55999994      -3.41641456E-14
  -1.44000006      -5.19964693E-14
  -1.32000005      -6.43496012E-14
  -1.20000005      -6.61813676E-14
  -1.08000004      -5.30402172E-14
 -0.959999979      -2.23298214E-14
 -0.839999974       2.54024215E-14
 -0.720000029       8.54442046E-14
 -0.600000024       1.48495176E-13
 -0.479999989       2.01148993E-13
 -0.360000014       2.27486378E-13
 -0.239999995       2.11801605E-13
 -0.119999997       1.42235575E-13
  -1.11022302E-15   1.48079469E-14
  0.119999997      -1.62919740E-13
  0.239999995      -3.69491357E-13
  0.360000014      -5.69476920E-13
  0.479999989      -7.16445620E-13
  0.600000024      -7.59355306E-13
  0.720000029      -6.52095457E-13
  0.839999974      -3.65150862E-13
  0.959999979       1.02434669E-13
   1.08000004       7.13261806E-13
   1.20000005       1.38673383E-12
   1.32000005       2.00178220E-12
   1.44000006       2.40899596E-12
   1.55999994       2.45258653E-12
   1.67999995       2.00070299E-12
   1.79999995       9.80427653E-13
   1.91999996      -5.88305338E-13
   2.03999996      -2.56713249E-12
   2.16000009      -4.68977027E-12
   2.27999997      -6.57539257E-12
   2.40000010      -7.76905883E-12
   2.51999998      -7.80919079E-12
   2.64000010      -6.31672666E-12
   2.75999999      -3.09476533E-12
   2.88000011       1.77771675E-12
   3.00000000       7.87798125E-12
   3.11999989       1.44179356E-11
   3.24000001       2.02860853E-11
   3.35999990       2.41628852E-11
   3.48000002       2.47081383E-11
   3.59999990       2.08051111E-11
   3.72000003       1.18314863E-11
   3.83999991      -2.08572049E-12
   3.96000004      -1.98822816E-11
   4.07999992      -3.94877950E-11
   4.19999981      -5.79192215E-11
   4.32000017      -7.15620965E-11
   4.44000006      -7.66373562E-11
   4.55999994      -6.98183872E-11
   4.67999983      -4.89275738E-11
   4.80000019      -1.36113135E-11
   4.92000008       3.41281517E-11
   5.03999996       8.96690222E-11
   5.15999985       1.45882417E-10
   5.28000021       1.93689856E-10
   5.40000010       2.23074850E-10
   5.51999998       2.24484653E-10
   5.63999987       1.90479521E-10
   5.76000023       1.17416188E-10
   5.88000011       6.90273142E-12
   6.00000000      -1.33255199E-10
   6.11999989      -2.88871760E-10
   6.23999977      -4.40146003E-10
   6.36000013      -5.63445735E-10
   6.48000002      -6.34036768E-10
   6.59999990      -6.29524322E-10
   6.71999979      -5.33622924E-10
   6.84000015      -3.39752115E-10
   6.96000004      -5.38950724E-11
   7.07999992       3.03830128E-10
   7.19999981       6.99338032E-10
   7.32000017       1.08675247E-09
   7.44000006       1.41261347E-09
   7.55999994       1.62184710E-09
   7.67999983       1.66493619E-09
   7.80000019       1.50547874E-09
   7.92000008       1.12714726E-09
   8.03999996       5.39009060E-10
   8.15999985      -2.21751520E-10
   8.27999973      -1.09043741E-09
   8.39999962      -1.97914729E-09
   8.52000046      -2.78471513E-09
   8.64000034      -3.39972361E-09
   8.76000023      -3.72555675E-09
   8.88000011      -3.68607855E-09
   9.00000000      -3.24026184E-09
   9.11999989      -2.39202880E-09
   9.23999977      -1.19569621E-09
   9.35999966       2.44248344E-10
   9.47999954       1.77978698E-09
   9.60000038       3.23252114E-09
   9.72000027       4.41268044E-09
   9.84000015       5.14259213E-09
   9.96000004       5.28251887E-09
   10.0799999       4.75622075E-09
   10.1999998       3.57322860E-09
   10.3199997       1.84467619E-09
   10.4399996      -2.10297280E-10
   10.5600004      -2.27015939E-09
   10.6800003      -3.93044663E-09
   10.8000002      -4.73792205E-09
   10.9200001      -4.23900426E-09
   11.0400000      -2.04053752E-09
   11.1599998       2.12064188E-09
   11.2799997       8.30465563E-09
   11.3999996       1.62990119E-08
   11.5200005       2.55610217E-08
   11.6400003       3.51817029E-08
   11.7600002       4.38812577E-08
   11.8800001       5.00458306E-08
   12.0000000       5.18138350E-08
   12.1199999       4.72176076E-08
   12.2399998       3.43822180E-08
   12.3599997       1.17783010E-08
   12.4799995      -2.14801332E-08
   12.6000004      -6.53086687E-08
   12.7200003      -1.18318326E-07
   12.8400002      -1.77502386E-07
   12.9600000      -2.37976835E-07
   13.0799999      -2.92808920E-07
   13.1999998      -3.32968426E-07
   13.3199997      -3.47431637E-07
   13.4399996      -3.23461478E-07
   13.5600004      -2.47076116E-07
   13.6800003      -1.03704465E-07
   13.8000002       1.20987309E-07
   13.9200001       4.40131942E-07
   14.0400000       8.64607784E-07
   14.1599998       1.40195891E-06
   14.2799997       2.05536003E-06
   14.3999996       2.82270253E-06
   14.5200005       3.69588133E-06
   14.6400003       4.66034498E-06
   14.7600002       5.69497752E-06
   14.8800001       6.77233766E-06
   15.0000000       7.85928114E-06
   15.1199999       8.91795571E-06
   15.2399998       9.90713397E-06
   15.3599997       1.07838359E-05
   15.4799995       1.15051516E-05
   15.6000004       1.20301784E-05
   15.7200003       1.23219834E-05
   15.8400002       1.23494692E-05
   15.9600000       1.20890518E-05
   16.0799999       1.15260646E-05
   16.2000008       1.06558091E-05
   16.3199997       9.48419802E-06
   16.4400005       8.02795694E-06
   16.5599995       6.31437433E-06
   16.6800003       4.38059942E-06
   16.7999992       2.27252985E-06
   16.9200001       4.33210801E-08
   17.0400009      -2.24841460E-06
   17.1599998      -4.54065184E-06
   17.2800007      -6.77015896E-06
   17.3999996      -8.87478200E-06
   17.5200005      -1.07957212E-05
   17.6399994      -1.24797089E-05
   17.7600002      -1.38809992E-05
   17.8799992      -1.49630923E-05
   18.0000000      -1.57001105E-05
   18.1200008      -1.60777654E-05
   18.2399998      -1.60938689E-05
   18.3600006      -1.57583454E-05
   18.4799995      -1.50927472E-05
   18.6000004      -1.41292676E-05
   18.7199993      -1.29093087E-05
   18.8400002      -1.14816594E-05
   18.9599991      -9.90037006E-06
   19.0799999      -8.22242873E-06
   19.2000008      -6.50536913E-06
   19.3199997      -4.80492872E-06
   19.4400005      -3.17287731E-06
   19.5599995      -1.65514018E-06
   19.6800003      -2.90296924E-07
   19.7999992       8.91475509E-07
   19.9200001       1.86898387E-06
   20.0400009       2.63012521E-06
   20.1599998       3.17155263E-06
   20.2800007       3.49796574E-06
   20.3999996       3.62110927E-06
   20.5200005       3.55858015E-06
   20.6399994       3.33253934E-06
   20.7600002       2.96842995E-06
   20.8799992       2.49377604E-06
   21.0000000       1.93711594E-06
   21.1200008       1.32710761E-06
   21.2399998       6.91805155E-07
   21.3600006       5.80875010E-08
   21.4799995      -5.48793309E-07
   21.6000004      -1.10559438E-06
   21.7199993      -1.59143895E-06
   21.8400002      -1.98818907E-06
   21.9599991      -2.28085582E-06
   22.0799999      -2.45805040E-06
   22.2000008      -2.51245638E-06
   22.3199997      -2.44128478E-06
   22.4400005      -2.24665109E-06
   22.5599995      -1.93580991E-06
   22.6800003      -1.52118503E-06
   22.7999992      -1.02013314E-06
   22.9200001      -4.54409900E-07
   23.0400009       1.50672776E-07
   23.1599998       7.67377855E-07
   23.2800007       1.36690903E-06
   23.3999996       1.92093171E-06
   23.5200005       2.40314489E-06
   23.6399994       2.79079245E-06
   23.7600002       3.06599236E-06
   23.8799992       3.21678181E-06
   24.0000000       3.23779363E-06
   24.1200008       3.13050418E-06
   24.2399998       2.90303979E-06
   24.3600006       2.56955445E-06
   24.4799995       2.14923398E-06
   24.6000004       1.66501104E-06
   24.7199993       1.14209229E-06
   24.8400002       6.06417473E-07
   24.9599991       8.31610194E-08
   25.0799999      -4.04617992E-07
   25.2000008      -8.37093808E-07
   25.3199997      -1.19850290E-06
   25.4400005      -1.47765422E-06
   25.5599995      -1.66812197E-06
   25.6800003      -1.76814592E-06
   25.7999992      -1.78028631E-06
   25.9200001      -1.71089061E-06
   26.0400009      -1.56943622E-06
   26.1599998      -1.36781125E-06
   26.2800007      -1.11958491E-06
   26.3999996      -8.39307120E-07
   26.5200005      -5.41863642E-07
   26.6399994      -2.41897993E-07
   26.7600002       4.67003431E-08
   26.8799992       3.11247646E-07
   27.0000000       5.40667997E-07
   27.1200008       7.25852772E-07
   27.2399998       8.59980446E-07
   27.3600006       9.38788560E-07
   27.4799995       9.60785769E-07
   27.6000004       9.27381109E-07
   27.7199993       8.42905308E-07
   27.8400002       7.14500231E-07
   27.9599991       5.51855919E-07
   28.0799999       3.66785912E-07
   28.2000008       1.72644931E-07
   28.3199997      -1.63933382E-08
   28.4400005      -1.86162893E-07
   28.5599995      -3.23387724E-07
   28.6800003      -4.16561534E-07
   28.7999992      -4.56759437E-07
   28.9200001      -4.38319148E-07
   29.0400009      -3.59333058E-07
   29.1599998      -2.21907399E-07
   29.2800007      -3.21596687E-08
   29.3999996       2.00053947E-07
   29.5200005       4.61669458E-07
   29.6399994       7.37172286E-07
   29.7600002       1.00953298E-06
   29.8799992       1.26125883E-06
   30.0000000       1.47549372E-06
   30.1200008       1.63709319E-06
   30.2399998       1.73360718E-06
   30.3600006       1.75610751E-06
   30.4799995       1.69981240E-06
   30.6000004       1.56446799E-06
   30.7199993       1.35447021E-06
   30.8400002       1.07871836E-06
   30.9599991       7.50211029E-07
   31.0799999       3.85408470E-07
   31.2000008       3.39468831E-09
   31.3199997      -3.75115519E-07
   31.4400005      -7.28874056E-07
   31.5599995      -1.03724597E-06
   31.6800003      -1.28134525E-06
   31.7999992      -1.44510386E-06
   31.9200001      -1.51621305E-06
   32.0400009      -1.48688548E-06
   32.1599998      -1.35439143E-06
   32.2799988      -1.12133057E-06
   32.4000015      -7.95612493E-07
   32.5200005      -3.90140144E-07
   32.6399994       7.78007134E-08
   32.7599983       5.87415968E-07
   32.8800011       1.11549650E-06
   33.0000000       1.63766686E-06
   33.1199989       2.12971054E-06
   33.2400017       2.56888529E-06
   33.3600006       2.93514040E-06
   33.4799995       3.21214884E-06
   33.5999985       3.38808309E-06
   33.7200012       3.45608305E-06
   33.8400002       3.41438567E-06
   33.9599991       3.26611553E-06
   34.0800018       3.01876958E-06
   34.2000008       2.68344343E-06
   34.3199997       2.27388387E-06
   34.4399986       1.80545351E-06
   34.5600014       1.29410705E-06
   34.6800003       7.55466885E-07
   34.7999992       2.04082852E-07
   34.9199982      -3.47073325E-07
   35.0400009      -8.86844816E-07
   35.1599998      -1.40585962E-06
   35.2799988      -1.89626212E-06
   35.4000015      -2.35126095E-06
   35.5200005      -2.76456853E-06
   35.6399994      -3.12982047E-06
   35.7599983      -3.44005912E-06
   35.8800011      -3.68737005E-06
   36.0000000      -3.86273587E-06
   36.1199989      -3.95614916E-06
   36.2400017      -3.95700818E-06
   36.3600006      -3.85477369E-06
   36.4799995      -3.63984759E-06
   36.5999985      -3.30461080E-06
   36.7200012      -2.84452085E-06
   36.8400002      -2.25917620E-06
   36.9599991      -1.55324074E-06
   37.0800018      -7.37135338E-07
   37.2000008       1.72589168E-07
   37.3199997       1.15325167E-06
   37.4399986       2.17644583E-06
   37.5600014       3.20884919E-06
   37.6800003       4.21340519E-06
   37.7999992       5.15082365E-06
   37.9199982       5.98131328E-06
   38.0400009       6.66645565E-06
   38.1599998       7.17111016E-06
   38.2799988       7.46525484E-06
   38.4000015       7.52564301E-06
   38.5200005       7.33720526E-06
   38.6399994       6.89411081E-06
   38.7599983       6.20043056E-06
   38.8800011       5.27036354E-06
   39.0000000       4.12800637E-06
   39.1199989       2.80666359E-06
   39.2400017       1.34772085E-06
   39.3600006      -2.00890355E-07
   39.4799995      -1.78656796E-06
   39.5999985      -3.35418576E-06
   39.7200012      -4.84841257E-06
   39.8400002      -6.21609843E-06
   39.9599991      -7.40860560E-06
   40.0800018      -8.38395681E-06
   40.2000008      -9.10868948E-06
   40.3199997      -9.55929681E-06
   40.4399986      -9.72316593E-06
   40.5600014      -9.59897443E-06
   40.6800003      -9.19650029E-06
   40.7999992      -8.53587790E-06
   40.9199982      -7.64635206E-06
   41.0400009      -6.56461907E-06
   41.1599998      -5.33288221E-06
   41.2799988      -3.99674354E-06
   41.4000015      -2.60308252E-06
   41.5200005      -1.19804690E-06
   41.6399994       1.74732435E-07
   41.7599983       1.47561764E-06
   41.8800011       2.67007795E-06
   42.0000000       3.72942895E-06
   42.1199989       4.63121023E-06
   42.2400017       5.35924892E-06
   42.3600006       5.90346644E-06
   42.4799995       6.25950724E-06
   42.5999985       6.42825717E-06
   42.7200012       6.41531733E-06
   42.8400002       6.23048527E-06
   42.9599991       5.88726380E-06
   43.0800018       5.40241444E-06
   43.2000008       4.79553592E-06
   43.3199997       4.08864798E-06
   43.4399986       3.30574699E-06
   43.5600014       2.47230128E-06
   43.6800003       1.61465948E-06
   43.7999992       7.59367367E-07
   43.9199982      -6.76052849E-08
   44.0400009      -8.41699148E-07
   44.1599998      -1.54062059E-06
   44.2799988      -2.14516535E-06
   44.4000015      -2.63994980E-06
   44.5200005      -3.01399996E-06
   44.6399994      -3.26114809E-06
   44.7599983      -3.38020959E-06
   44.8800011      -3.37493111E-06
   45.0000000      -3.25371798E-06
   45.1199989      -3.02916510E-06
   45.2400017      -2.71743443E-06
   45.3600006      -2.33751712E-06
   45.4799995      -1.91042500E-06
   45.5999985      -1.45834713E-06
   45.7200012      -1.00379691E-06
   45.8400002      -5.68759390E-07
   45.9599991      -1.73851220E-07
   46.0800018       1.62509906E-07
   46.2000008       4.24918767E-07
   46.3199997       6.01763645E-07
   46.4399986       6.85946304E-07
   46.5600014       6.75492686E-07
   46.6800003       5.73992224E-07
   46.7999992       3.90792678E-07
   46.9199982       1.40878100E-07
   47.0400009      -1.55633202E-07
   47.1599998      -4.74407130E-07
   47.2799988      -7.88230182E-07
   47.4000015      -1.06871971E-06
   47.5200005      -1.28831562E-06
   47.6399994      -1.42241652E-06
   47.7599983      -1.45148420E-06
   47.8800011      -1.36292306E-06
   48.0000000      -1.15253829E-06
   48.1199989      -8.25399241E-07
   48.2400017      -3.95977054E-07
   48.3600006       1.12509966E-07
   48.4799995       6.69537201E-07
   48.5999985       1.23941413E-06
   48.7200012       1.78396147E-06
   48.8400002       2.26550219E-06
   48.9599991       2.64990217E-06
   49.0800018       2.90937965E-06
   49.2000008       3.02481953E-06
   49.3199997       2.98737109E-06
   49.4399986       2.79917185E-06
   49.5600014       2.47312573E-06
   49.6800003       2.03175568E-06
   49.7999992       1.50524306E-06
   49.9199982       9.28834936E-07
   50.0400009       3.39871463E-07
   50.1599998      -2.25288488E-07
   50.2799988      -7.34162256E-07
   50.4000015      -1.16059562E-06
   50.5200005      -1.48656159E-06
   50.6399994      -1.70316264E-06
   50.7599983      -1.81077041E-06
   50.8800011      -1.81832365E-06
   51.0000000      -1.74187937E-06
   51.1199989      -1.60258367E-06
   51.2400017      -1.42427405E-06
   51.3600006      -1.23095742E-06
   51.4799995      -1.04440721E-06
   51.5999985      -8.82109475E-07
   51.7200012      -7.55743315E-07
   51.8400002      -6.70328859E-07
   51.9599991      -6.24102142E-07
   52.0800018      -6.09109520E-07
   52.2000008      -6.12435599E-07
   52.3199997      -6.17923263E-07
   52.4399986      -6.08192465E-07
   52.5600014      -5.66742813E-07
   52.6800003      -4.79917901E-07
   52.7999992      -3.38532004E-07
   52.9199982      -1.39001173E-07
   53.0400009       1.16123118E-07
   53.1599998       4.18251147E-07
   53.2799988       7.53447523E-07
   53.4000015       1.10362259E-06
   53.5200005       1.44807734E-06
   53.6399994       1.76522587E-06
   53.7599983       2.03431591E-06
   53.8800011       2.23698112E-06
   54.0000000       2.35849166E-06
   54.1199989       2.38862390E-06
   54.2400017       2.32211414E-06
   54.3600006       2.15872433E-06
   54.4799995       1.90297840E-06
   54.5999985       1.56366639E-06
   54.7200012       1.15321461E-06
   54.8400002       6.87015188E-07
   54.9599991       1.82782045E-07
   55.0800018      -3.40031704E-07
   55.2000008      -8.60759883E-07
   55.3199997      -1.35802748E-06
   55.4399986      -1.81029236E-06
   55.5600014      -2.19648587E-06
   55.6800003      -2.49680738E-06
   55.7999992      -2.69369571E-06
   55.9199982      -2.77295931E-06
   56.0400009      -2.72500665E-06
   56.1599998      -2.54605970E-06
   56.2799988      -2.23920961E-06
   56.4000015      -1.81514781E-06
   56.5200005      -1.29240925E-06
   56.6399994      -6.96995926E-07
   56.7599983      -6.12993318E-08
   56.8800011       5.77682329E-07
   57.0000000       1.18075684E-06
   57.1199989       1.70941200E-06
   57.2400017       2.12891405E-06
   57.3600006       2.41133080E-06
   57.4799995       2.53816393E-06
   57.5999985       2.50228595E-06
   57.7200012       2.30892647E-06
   57.8400002       1.97554436E-06
   57.9599991       1.53053384E-06
   58.0800018       1.01083617E-06
   58.2000008       4.58659429E-07
   58.3199997      -8.23867481E-08
   58.4399986      -5.71354747E-07
   58.5600014      -9.73799160E-07
   58.6800003      -1.26498605E-06
   58.7999992      -1.43212185E-06
   58.9199982      -1.47535650E-06
   59.0400009      -1.40744760E-06
   59.1599998      -1.25212023E-06
   59.2799988      -1.04130004E-06
   59.4000015      -8.11524444E-07
   59.5200005      -5.99921179E-07
   59.6399994      -4.40193105E-07
   59.7599983      -3.59034516E-07
   59.8800011      -3.73352748E-07
   60.0000000      -4.88568901E-07
   60.1199989      -6.98144390E-07
   60.2400017      -9.84342591E-07
   60.3600006      -1.32009677E-06
   60.4799995      -1.67174267E-06
   60.5999985      -2.00229374E-06
   60.7200012      -2.27489636E-06
   60.8400002      -2.45610954E-06
   60.9599991      -2.51870438E-06
   61.0800018      -2.44374701E-06
   61.2000008      -2.22184531E-06
   61.3199997      -1.85352508E-06
   61.4399986      -1.34880952E-06
   61.5600014      -7.26147562E-07
   61.6800003      -1.08788907E-08
   61.7999992       7.66557605E-07
   61.9199982       1.57248246E-06
   62.0400009       2.37174754E-06
   62.1599998       3.12932593E-06
   62.2799988       3.81167183E-06
   62.4000015       4.38786310E-06
   62.5200005       4.83056647E-06
   62.6399994       5.11688950E-06
   62.7599983       5.22916844E-06
   62.8800011       5.15573311E-06
   63.0000000       4.89164131E-06
   63.1199989       4.43935096E-06
   63.2400017       3.80923757E-06
   63.3600006       3.01986688E-06
   63.4799995       2.09790596E-06
   63.5999985       1.07756762E-06
   63.7200012      -4.73295236E-10
   63.8400002      -1.09072084E-06
   63.9599991      -2.14501370E-06
   64.0800018      -3.11509802E-06
   64.1999969      -3.95545430E-06
   64.3199997      -4.62617800E-06
   64.4400024      -5.09567462E-06
   64.5599976      -5.34293440E-06
   64.6800003      -5.35917115E-06
   64.8000031      -5.14865087E-06
   64.9199982      -4.72859710E-06
   65.0400009      -4.12815552E-06
   65.1600037      -3.38645987E-06
   65.2799988      -2.54994461E-06
   65.4000015      -1.66910445E-06
   65.5199966      -7.94961693E-07
   65.6399994       2.44748257E-08
   65.7600021       7.47475951E-07
   65.8799973       1.34132438E-06
   66.0000000       1.78430730E-06
   66.1200027       2.06682716E-06
   66.2399979       2.19156982E-06
   66.3600006       2.17274328E-06
   66.4800034       2.03447894E-06
   66.5999985       1.80853920E-06
   66.7200012       1.53153030E-06
   66.8399963       1.24183032E-06
   66.9599991       9.76464776E-07
   67.0800018       7.68145469E-07
   67.1999969       6.42670614E-07
   67.3199997       6.16858244E-07
   67.4400024       6.97147755E-07
   67.5599976       8.78964272E-07
   67.6800003       1.14689976E-06
   67.8000031       1.47571552E-06
   67.9199982       1.83212273E-06
   68.0400009       2.17724823E-06
   68.1600037       2.46963828E-06
   68.2799988       2.66860661E-06
   68.4000015       2.73769638E-06
   68.5199966       2.64799291E-06
   68.6399994       2.38102348E-06
   68.7600021       1.93098072E-06
   68.8799973       1.30605395E-06
   69.0000000       5.28705073E-07
   69.1200027      -3.65196684E-07
   69.2399979      -1.32836919E-06
   69.3600006      -2.30513365E-06
   69.4800034      -3.23525092E-06
   69.5999985      -4.05828814E-06
   69.7200012      -4.71817566E-06
   69.8399963      -5.16757154E-06
   69.9599991      -5.37167261E-06
   70.0800018      -5.31112437E-06
   70.1999969      -4.98378267E-06
   70.3199997      -4.40515532E-06
   70.4400024      -3.60747390E-06
   70.5599976      -2.63747029E-06
   70.6800003      -1.55304031E-06
   70.8000031      -4.19075519E-07
   70.9199982       6.97188000E-07
   71.0400009       1.73092087E-06
   71.1600037       2.62416734E-06
   71.2799988       3.32968239E-06
   71.4000015       3.81386076E-06
   71.5199966       4.05856554E-06
   71.6399994       4.06176423E-06
   71.7600021       3.83698762E-06
   71.8799973       3.41171472E-06
   72.0000000       2.82486440E-06
   72.1200027       2.12363489E-06
   72.2399979       1.35995674E-06
   72.3600006       5.86833096E-07
   72.4800034      -1.45176699E-07
   72.5999985      -7.91108619E-07
   72.7200012      -1.31420222E-06