  -30.0000000       0.00000000    
  -29.8799992       0.00000000    
  -29.7600002       0.00000000    
  -29.6399994       0.00000000    
  -29.5200005       0.00000000    
  -29.3999996       0.00000000    
  -29.2800007       0.00000000    
  -29.1599998      -1.38561528E-30
  -29.0400009      -6.79127812E-30
  -28.9200001       1.10649257E-29
  -28.7999992       2.12959559E-28
  -28.6800003       9.49971878E-28
  -28.5599995       2.24421067E-27
  -28.4400005       2.07710427E-27
  -28.3199997      -5.52971118E-27
  -28.2000008      -2.79925382E-26
  -28.0799999      -6.10859865E-26
  -27.9599991      -6.97097400E-26
  -27.8400002       4.86238339E-27
  -27.7199993       1.52567080E-25
  -27.6000004       9.52842593E-26
  -27.4799995      -8.68197830E-25
  -27.3600006      -3.53187108E-24
  -27.2399998      -7.37081259E-24
  -27.1200008      -7.95886974E-24
  -27.0000000       5.18320072E-24
  -26.8799992       4.60479694E-23
  -26.7600002       1.18927875E-22
  -26.6399994       1.91727582E-22
  -26.5200005       1.65507309E-22
  -26.3999996      -1.27989930E-22
  -26.2800007      -8.48382467E-22
  -26.1599998      -1.94299718E-21
  -26.0400009      -2.84269806E-21
  -25.9200001      -2.23362535E-21
  -25.7999992       1.73224565E-21
  -25.6800003       1.03513867E-20
  -25.5599995       2.22452260E-20
  -25.4400005       3.08482114E-20
  -25.3199997       2.34057039E-20
  -25.2000008      -1.55900830E-20
  -25.0799999      -9.40305639E-20
  -24.9599991      -1.95626160E-19
  -24.8400002      -2.64224856E-19
  -24.7199993      -2.03408559E-19
  -24.6000004       9.11929531E-20
  -24.4799995       6.57677346E-19
  -24.3600006       1.36670286E-18
  -24.2399998       1.84455797E-18
  -24.1200008       1.50281646E-18
  -24.0000000      -2.45564721E-19
  -23.8799992      -3.56806591E-18
  -23.7600002      -7.70841010E-18
  -23.6399994      -1.06726747E-17
  -23.5200005      -9.48038731E-18
  -23.3999996      -1.27494723E-18
  -23.2800007       1.47523080E-17
  -23.1599998       3.52335531E-17
  -23.0400009       5.14776366E-17
  -22.9200001       5.07201410E-17
  -22.7999992       2.06895838E-17
  -22.6800003      -4.29730287E-17
  -22.5599995      -1.28886307E-16
  -22.4400005      -2.05898344E-16
  -22.3199997      -2.27439358E-16
  -22.2000008      -1.46839739E-16
  -22.0799999       5.83515902E-17
  -21.9599991       3.60916477E-16
  -21.8400002       6.69974633E-16
  -21.7199993       8.41469476E-16
  -21.6000004       7.20062179E-16
  -21.4799995       2.06959967E-16
  -21.3600006      -6.66919914E-16
  -21.2399998      -1.69448158E-15
  -21.1200008      -2.50539746E-15
  -21.0000000      -2.65678300E-15
  -20.8799992      -1.79182684E-15
  -20.7600002       1.76830714E-16
  -20.6399994       2.92754894E-15
  -20.5200005       5.70630850E-15
  -20.3999996       7.46635741E-15
  -20.2800007       7.16621976E-15
  -20.1599998       4.15870265E-15
  -20.0400009      -1.44794586E-15
  -19.9200001      -8.59405219E-15
  -19.7999992      -1.53480845E-14
  -19.6800003      -1.93024934E-14
  -19.5599995      -1.82317777E-14
  -19.4400005      -1.08658615E-14
  -19.3199997       2.43228370E-15
  -19.2000008       1.93114923E-14
  -19.0799999       3.55852161E-14
  -18.9599991       4.59817697E-14
  -18.8400002       4.54404851E-14
  -18.7199993       3.07347328E-14
  -18.6000004       2.03817854E-15
  -18.4799995      -3.60652636E-14
  -18.3600006      -7.46360506E-14
  -18.2399998      -1.01850786E-13
  -18.1200008      -1.05899230E-13
  -18.0000000      -7.88214641E-14
  -17.8799992      -2.02850533E-14
  -17.7600002       6.00375056E-14
  -17.6399994       1.42784086E-13
  -17.5200005       2.02641520E-13
  -17.3999996       2.15199549E-13
  -17.2800007       1.65359466E-13
  -17.1599998       5.47052773E-14
  -17.0400009      -9.50808578E-14
  -16.9200001      -2.44969409E-13
  -16.7999992      -3.47972925E-13
  -16.6800003      -3.63305062E-13
  -16.5599995      -2.71270392E-13
  -16.4400005      -8.37255341E-14
  -16.3199997       1.54457068E-13
  -16.2000008       3.75081043E-13
  -16.0799999       5.05968802E-13
  -15.9600000       4.94696840E-13
  -15.8400002       3.29020800E-13
  -15.7200003       4.62780889E-14
  -15.6000004      -2.73128254E-13
  -15.4799995      -5.28037141E-13
  -15.3599997      -6.28808366E-13
  -15.2399998      -5.29389900E-13
  -15.1199999      -2.47751337E-13
  -15.0000000       1.33984634E-13
  -14.8800001       4.92111397E-13
  -14.7600002       7.01072501E-13
  -14.6400003       6.77922724E-13
  -14.5200005       4.15884395E-13
  -14.3999996      -6.47376143E-15
  -14.2799997      -4.46506222E-13
  -14.1599998      -7.44710771E-13
  -14.0400000      -7.83179782E-13
  -13.9200001      -5.34538126E-13
  -13.8000002      -8.15951785E-14
  -13.6800003       4.03528610E-13
  -13.5600004       7.18105751E-13
  -13.4399996       7.07785610E-13
  -13.3199997       3.37949937E-13
  -13.1999998      -2.71799591E-13
  -13.0799999      -8.69738418E-13
  -12.9600000      -1.15194367E-12
  -12.8400002      -8.79322602E-13
  -12.7200003       6.87458843E-15
  -12.6000004       1.31625093E-12
  -12.4799995       2.62329850E-12
  -12.3599997       3.37632006E-12
  -12.2399998       3.08027258E-12
  -12.1199999       1.50097187E-12
  -12.0000000      -1.18043140E-12
  -11.8800001      -4.33015646E-12
  -11.7600002      -6.98042448E-12
  -11.6400003      -8.09451464E-12
  -11.5200005      -6.91445989E-12
  -11.3999996      -3.28549601E-12
  -11.2799997       2.16113325E-12
  -11.1599998       8.05846015E-12
  -11.0400000       1.26143896E-11
  -10.9200001       1.41245167E-11
  -10.8000002       1.15492546E-11
  -10.6800003       4.97199417E-12
  -10.5600004      -4.23417247E-12
  -10.4399996      -1.36320209E-11
  -10.3199997      -2.03224677E-11
  -10.1999998      -2.17810457E-11
  -10.0799999      -1.66910426E-11
  -9.96000004      -5.50878050E-12
  -9.84000015       9.44586596E-12
  -9.72000027       2.44498276E-11
  -9.60000038       3.52974663E-11
  -9.47999954       3.84408477E-11
  -9.35999966       3.20260103E-11
  -9.23999977       1.65160767E-11
  -9.11999989      -5.29623697E-12
  -9.00000000      -2.89080634E-11
  -8.88000011      -4.91929067E-11
  -8.76000023      -6.16515589E-11
  -8.64000034      -6.34788264E-11
  -8.52000046      -5.41572065E-11
  -8.39999962      -3.54342077E-11
  -8.27999973      -1.07249695E-11
  -8.15999985       1.58523403E-11
  -8.03999996       4.05042597E-11
  -7.92000008       6.05494960E-11
  -7.80000019       7.47564302E-11
  -7.67999983       8.31745089E-11
  -7.55999994       8.65658448E-11
  -7.44000006       8.56618734E-11
  -7.32000017       8.05081973E-11
  -7.19999981       7.01094391E-11
  -7.07999992       5.24666456E-11
  -6.96000004       2.49563044E-11
  -6.84000015      -1.51157958E-11
  -6.71999979      -6.99998531E-11
  -6.59999990      -1.41204146E-10
  -6.48000002      -2.29487734E-10
  -6.36000013      -3.35088651E-10
  -6.23999977      -4.58030947E-10
  -6.11999989      -5.98321170E-10
  -6.00000000      -7.55898122E-10
  -5.88000011      -9.30314603E-10
  -5.76000023      -1.12026632E-09
  -5.63999987      -1.32317635E-09
  -5.51999998      -1.53505642E-09
  -5.40000010      -1.75078296E-09
  -5.28000021      -1.96477812E-09
  -5.15999985      -2.17192753E-09
  -5.03999996      -2.36846320E-09
  -4.92000008      -2.55254351E-09
  -4.80000019      -2.72436629E-09
  -4.67999983      -2.88583668E-09
  -4.55999994      -3.03998360E-09
  -4.44000006      -3.19042215E-09
  -4.32000017      -3.34112848E-09
  -4.19999981      -3.49663898E-09
  -4.07999992      -3.66255759E-09
  -3.96000004      -3.84604837E-09
  -3.83999991      -4.05590450E-09
  -3.72000003      -4.30187796E-09
  -3.59999990      -4.59322091E-09
  -3.48000002      -4.93672703E-09
  -3.35999990      -5.33487254E-09
  -3.24000001      -5.78475268E-09
  -3.11999989      -6.27838581E-09
  -3.00000000      -6.80453160E-09
  -2.88000011      -7.35166239E-09
  -2.75999999      -7.91124766E-09
  -2.64000010      -8.48029202E-09
  -2.51999998      -9.06219455E-09
  -2.40000010      -9.66552882E-09
  -2.27999997      -1.03010125E-08
  -2.16000009      -1.09776357E-08
  -2.03999996      -1.16993073E-08
  -1.91999996      -1.24633281E-08
  -1.79999995      -1.32614337E-08
  -1.67999995      -1.40833443E-08
  -1.55999994      -1.49218238E-08
  -1.44000006      -1.57776689E-08
  -1.32000005      -1.66629306E-08
  -1.20000005      -1.76010762E-08
  -1.08000004      -1.86238349E-08
 -0.959999979      -1.97653591E-08
 -0.839999974      -2.10553921E-08
 -0.720000029      -2.25134063E-08
 -0.600000024      -2.41454590E-08
 -0.479999989      -2.59447361E-08
 -0.360000014      -2.78956040E-08
 -0.239999995      -2.99799083E-08
 -0.119999997      -3.21836069E-08
  -1.11022302E-15  -3.45016744E-08
  0.119999997      -3.69399409E-08
  0.239999995      -3.95133810E-08
  0.360000014      -4.22415880E-08
  0.479999989      -4.51430644E-08
  0.600000024      -4.82302625E-08
  0.720000029      -5.15069232E-08
  0.839999974      -5.49685559E-08
  0.959999979      -5.86057460E-08
   1.08000004      -6.24090859E-08
   1.20000005      -6.63740067E-08
   1.32000005      -7.05041074E-08
   1.44000006      -7.48118367E-08
   1.55999994      -7.93168056E-08
   1.67999995      -8.40424690E-08
   1.79999995      -8.90126302E-08
   1.91999996      -9.42489962E-08
   2.03999996      -9.97705953E-08
   2.16000009      -1.05594957E-07
   2.27999997      -1.11740285E-07
   2.40000010      -1.18227213E-07
   2.51999998      -1.25079097E-07
   2.64000010      -1.32320196E-07
   2.75999999      -1.39972116E-07
   2.88000011      -1.48049338E-07
   3.00000000      -1.56555870E-07
   3.11999989      -1.65484053E-07
   3.24000001      -1.74816861E-07
   3.35999990      -1.84533192E-07
   3.48000002      -1.94615197E-07
   3.59999990      -2.05055699E-07
   3.72000003      -2.15863665E-07
   3.83999991      -2.27066167E-07
   3.96000004      -2.38706491E-07
   4.07999992      -2.50838895E-07
   4.19999981      -2.63521599E-07
   4.32000017      -2.76809772E-07
   4.44000006      -2.90750449E-07
   4.55999994      -3.05379842E-07
   4.67999983      -3.20723046E-07
   4.80000019      -3.36795580E-07
   4.92000008      -3.53605287E-07
   5.03999996      -3.71153874E-07
   5.15999985      -3.89437787E-07
   5.28000021      -4.08448813E-07
   5.40000010      -4.28174872E-07
   5.51999998      -4.48601980E-07
   5.63999987      -4.69717236E-07
   5.76000023      -4.91512537E-07
   5.88000011      -5.13988255E-07
   6.00000000      -5.37155472E-07
   6.11999989      -5.61036870E-07
   6.23999977      -5.85665362E-07
   6.36000013      -6.11081077E-07
   6.48000002      -6.37327844E-07
   6.59999990      -6.64449090E-07
   6.71999979      -6.92485116E-07
   6.84000015      -7.21469689E-07
   6.96000004      -7.51427649E-07
   7.07999992      -7.82371956E-07
   7.19999981      -8.14301188E-07
   7.32000017      -8.47197725E-07
   7.44000006      -8.81027859E-07
   7.55999994      -9.15744465E-07
   7.67999983      -9.51293316E-07
   7.80000019      -9.87621434E-07
   7.92000008      -1.02468675E-06
   8.03999996      -1.06246603E-06
   8.15999985      -1.10095823E-06
   8.27999973      -1.14018292E-06
   8.39999962      -1.18017135E-06
   8.52000046      -1.22095469E-06
   8.64000034      -1.26254929E-06
   8.76000023      -1.30494675E-06
   8.88000011      -1.34810796E-06
   9.00000000      -1.39196527E-06
   9.11999989      -1.43643138E-06
   9.23999977      -1.48141226E-06
   9.35999966      -1.52682082E-06
   9.47999954      -1.57258523E-06
   9.60000038      -1.61865364E-06
   9.72000027      -1.66498955E-06
   9.84000015      -1.71156489E-06
   9.96000004      -1.75834759E-06
   10.0799999      -1.80529412E-06
   10.1999998      -1.85234171E-06
   10.3199997      -1.89940749E-06
   10.4399996      -1.94639142E-06
   10.5600004      -1.99317901E-06
   10.6800003      -2.03964760E-06
   10.8000002      -2.08566985E-06
   10.9200001      -2.13111366E-06
   11.0400000      -2.17584375E-06
   11.1599998      -2.21972027E-06
   11.2799997      -2.26259635E-06
   11.3999996      -2.30431874E-06
   11.5200005      -2.34472441E-06
   11.6400003      -2.38363964E-06
   11.7600002      -2.42087890E-06
   11.8800001      -2.45624392E-06
   12.0000000      -2.48952301E-06
   12.1199999      -2.52049472E-06
   12.2399998      -2.54893075E-06
   12.3599997      -2.57460079E-06
   12.4799995      -2.59727562E-06
   12.6000004      -2.61673222E-06
   12.7200003      -2.63275115E-06
   12.8400002      -2.64511277E-06
   12.9600000      -2.65359108E-06
   13.0799999      -2.65794438E-06
   13.1999998      -2.65790823E-06
   13.3199997      -2.65318999E-06
   13.4399996      -2.64346659E-06
   13.5600004      -2.62838716E-06
   13.6800003      -2.60757747E-06
   13.8000002      -2.58064551E-06
   13.9200001      -2.54718861E-06
   14.0400000      -2.50679614E-06
   14.1599998      -2.45905335E-06
   14.2799997      -2.40354370E-06
   14.3999996      -2.33984815E-06
   14.5200005      -2.26754651E-06
   14.6400003      -2.18621994E-06
   14.7600002      -2.09545215E-06
   14.8800001      -1.99483043E-06
   15.0000000      -1.88394517E-06
   15.1199999      -1.76238723E-06
   15.2399998      -1.62974152E-06
   15.3599997      -1.48557751E-06
   15.4799995      -1.32944103E-06
   15.6000004      -1.16084550E-06
   15.7200003      -9.79268520E-07
   15.8400002      -7.84152007E-07
   15.9600000      -5.74909052E-07
   16.0799999      -3.50933476E-07
   16.2000008      -1.11612849E-07
   16.3199997       1.43660429E-07
   16.4400005       4.15481139E-07
   16.5599995       7.04428601E-07
   16.6800003       1.01107094E-06
   16.7999992       1.33597359E-06
   16.9200001       1.67971086E-06
   17.0400009       2.04287721E-06
   17.1599998       2.42609713E-06
   17.2800007       2.83002623E-06
   17.3999996       3.25535302E-06
   17.5200005       3.70278917E-06
   17.6399994       4.17306273E-06
   17.7600002       4.66690835E-06
   17.8799992       5.18505840E-06
   18.0000000       5.72823592E-06
   18.1200008       6.29715169E-06
   18.2399998       6.89250419E-06
   18.3600006       7.51497873E-06
   18.4799995       8.16525517E-06
   18.6000004       8.84401015E-06
   18.7199993       9.55192900E-06
   18.8400002       1.02897075E-05
   18.9599991       1.10580540E-05
   19.0799999       1.18576954E-05
   19.2000008       1.26893619E-05
   19.3199997       1.35537866E-05
   19.4400005       1.44516989E-05
   19.5599995       1.53838118E-05
   19.6800003       1.63508339E-05
   19.7999992       1.73534663E-05
   19.9200001       1.83924167E-05
   20.0400009       1.94684017E-05
   20.1599998       2.05821543E-05
   20.2800007       2.17344277E-05
   20.3999996       2.29259786E-05
   20.5200005       2.41575726E-05
   20.6399994       2.54299612E-05
   20.7600002       2.67438791E-05
   20.8799992       2.81000466E-05
   21.0000000       2.94991587E-05
   21.1200008       3.09418974E-05
   21.2399998       3.24289213E-05
   21.3600006       3.39608960E-05
   21.4799995       3.55384436E-05
   21.6000004       3.71621936E-05
   21.7199993       3.88327389E-05
   21.8400002       4.05506689E-05
   21.9599991       4.23165438E-05
   22.0799999       4.41309021E-05
   22.2000008       4.59942567E-05
   22.3199997       4.79070914E-05
   22.4400005       4.98698682E-05
   22.5599995       5.18830166E-05
   22.6800003       5.39469402E-05
   22.7999992       5.60620283E-05
   22.9200001       5.82286593E-05
   23.0400009       6.04471825E-05
   23.1599998       6.27179688E-05
   23.2800007       6.50413567E-05
   23.3999996       6.74176772E-05
   23.5200005       6.98472286E-05
   23.6399994       7.23302583E-05
   23.7600002       7.48669772E-05
   23.8799992       7.74575165E-05
   24.0000000       8.01019414E-05
   24.1200008       8.28002958E-05
   24.2399998       8.55525577E-05
   24.3600006       8.83586690E-05
   24.4799995       9.12185496E-05
   24.6000004       9.41320686E-05
   24.7199993       9.70990877E-05
   24.8400002       1.00119389E-04
   24.9599991       1.03192702E-04
   25.0799999       1.06318694E-04
   25.2000008       1.09496985E-04
   25.3199997       1.12727110E-04
   25.4400005       1.16008581E-04
   25.5599995       1.19340817E-04
   25.6800003       1.22723199E-04
   25.7999992       1.26155021E-04
   25.9200001       1.29635548E-04
   26.0400009       1.33163921E-04
   26.1599998       1.36739269E-04
   26.2800007       1.40360571E-04
   26.3999996       1.44026781E-04
   26.5200005       1.47736748E-04
   26.6399994       1.51489279E-04
   26.7600002       1.55283138E-04
   26.8799992       1.59116986E-04
   27.0000000       1.62989469E-04
   27.1200008       1.66899161E-04
   27.2399998       1.70844563E-04
   27.3600006       1.74824047E-04
   27.4799995       1.78835966E-04
   27.6000004       1.82878503E-04
   27.7199993       1.86949750E-04
   27.8400002       1.91047729E-04
   27.9599991       1.95170331E-04
   28.0799999       1.99315327E-04
   28.2000008       2.03480420E-04
   28.3199997       2.07663237E-04
   28.4400005       2.11861290E-04
   28.5599995       2.16072105E-04
   28.6800003       2.20293106E-04
   28.7999992       2.24521631E-04
   28.9200001       2.28754958E-04
   29.0400009       2.32990205E-04
   29.1599998       2.37224449E-04
   29.2800007       2.41454574E-04
   29.3999996       2.45677365E-04
   29.5200005       2.49889534E-04
   29.6399994       2.54087819E-04
   29.7600002       2.58268730E-04
   29.8799992       2.62428861E-04
   30.0000000       2.66564777E-04
   30.1200008       2.70672899E-04
   30.2399998       2.74749531E-04
   30.3600006       2.78790947E-04
   30.4799995       2.82793248E-04
   30.6000004       2.86752445E-04
   30.7199993       2.90664408E-04
   30.8400002       2.94524973E-04
   30.9599991       2.98329949E-04
   31.0799999       3.02075001E-04
   31.2000008       3.05755821E-04
   31.3199997       3.09368013E-04
   31.4400005       3.12907243E-04
   31.5599995       3.16369027E-04
   31.6800003       3.19748971E-04
   31.7999992       3.23042623E-04
   31.9200001       3.26245470E-04
   32.0400009       3.29352944E-04
   32.1599998       3.32360505E-04
   32.2799988       3.35263438E-04
   32.4000015       3.38057056E-04
   32.5200005       3.40736588E-04
   32.6399994       3.43297288E-04
   32.7599983       3.45734385E-04
   32.8800011       3.48043104E-04
   33.0000000       3.50218732E-04
   33.1199989       3.52256495E-04
   33.2400017       3.54151736E-04
   33.3600006       3.55899741E-04
   33.4799995       3.57495883E-04
   33.5999985       3.58935562E-04
   33.7200012       3.60214210E-04
   33.8400002       3.61327286E-04
   33.9599991       3.62270337E-04
   34.0800018       3.63038940E-04
   34.2000008       3.63628787E-04
   34.3199997       3.64035659E-04
   34.4399986       3.64255364E-04
   34.5600014       3.64283915E-04
   34.6800003       3.64117353E-04
   34.7999992       3.63751780E-04
   34.9199982       3.63183499E-04
   35.0400009       3.62408900E-04
   35.1599998       3.61424492E-04
   35.2799988       3.60226870E-04
   35.4000015       3.58812831E-04
   35.5200005       3.57179233E-04
   35.6399994       3.55323136E-04
   35.7599983       3.53241572E-04
   35.8800011       3.50931892E-04
   36.0000000       3.48391593E-04
   36.1199989       3.45618377E-04
   36.2400017       3.42610147E-04
   36.3600006       3.39365070E-04
   36.4799995       3.35881457E-04
   36.5999985       3.32157942E-04
   36.7200012       3.28193302E-04
   36.8400002       3.23986489E-04
   36.9599991       3.19536688E-04
   37.0800018       3.14843317E-04
   37.2000008       3.09906085E-04
   37.3199997       3.04724847E-04
   37.4399986       2.99299718E-04
   37.5600014       2.93631078E-04
   37.6800003       2.87719624E-04
   37.7999992       2.81566172E-04
   37.9199982       2.75171857E-04
   38.0400009       2.68538075E-04
   38.1599998       2.61666544E-04
   38.2799988       2.54559272E-04
   38.4000015       2.47218559E-04
   38.5200005       2.39646950E-04
   38.6399994       2.31847371E-04
   38.7599983       2.23822921E-04
   38.8800011       2.15576918E-04
   39.0000000       2.07112957E-04
   39.1199989       1.98434907E-04
   39.2400017       1.89546903E-04
   39.3600006       1.80453470E-04
   39.4799995       1.71159394E-04
   39.5999985       1.61669799E-04
   39.7200012       1.51990156E-04
   39.8400002       1.42126199E-04
   39.9599991       1.32083820E-04
   40.0800018       1.21869198E-04
   40.2000008       1.11488713E-04
   40.3199997       1.00948964E-04
   40.4399986       9.02568208E-05
   40.5600014       7.94193838E-05
   40.6800003       6.84440602E-05
   40.7999992       5.73385332E-05
   40.9199982       4.61107411E-05
   41.0400009       3.47688729E-05
   41.1599998       2.33213304E-05
   41.2799988       1.17767186E-05
   41.4000015       1.43848041E-07
   41.5200005      -1.15682860E-05
   41.6399994      -2.33504907E-05
   41.7599983      -3.51934177E-05
   41.8800011      -4.70875311E-05
   42.0000000      -5.90231903E-05
   42.1199989      -7.09906308E-05
   42.2400017      -8.29799901E-05
   42.3600006      -9.49813329E-05
   42.4799995      -1.06984633E-04
   42.5999985      -1.18979719E-04
   42.7200012      -1.30956309E-04
   42.8400002      -1.42904057E-04
   42.9599991      -1.54812500E-04
   43.0800018      -1.66671089E-04
   43.2000008      -1.78469229E-04
   43.3199997      -1.90196326E-04
   43.4399986      -2.01841802E-04
   43.5600014      -2.13395106E-04
   43.6800003      -2.24845731E-04
   43.7999992      -2.36183259E-04
   43.9199982      -2.47397285E-04
   44.0400009      -2.58477608E-04
   44.1599998      -2.69414042E-04
   44.2799988      -2.80196458E-04
   44.4000015      -2.90814991E-04
   44.5200005      -3.01259715E-04
   44.6399994      -3.11520882E-04
   44.7599983      -3.21588916E-04
   44.8800011      -3.31454357E-04
   45.0000000      -3.41107982E-04
   45.1199989      -3.50540678E-04
   45.2400017      -3.59743630E-04
   45.3600006      -3.68708250E-04
   45.4799995      -3.77426186E-04
   45.5999985      -3.85889347E-04
   45.7200012      -3.94089933E-04
   45.8400002      -4.02020378E-04
   45.9599991      -4.09673608E-04
   46.0800018      -4.17042786E-04
   46.2000008      -4.24121477E-04
   46.3199997      -4.30903543E-04
   46.4399986      -4.37383220E-04
   46.5600014      -4.43554978E-04
   46.6800003      -4.49413637E-04
   46.7999992      -4.54954366E-04
   46.9199982      -4.60172538E-04
   47.0400009      -4.65064135E-04
   47.1599998      -4.69625316E-04
   47.2799988      -4.73852822E-04
   47.4000015      -4.77743713E-04
   47.5200005      -4.81295632E-04
   47.6399994      -4.84506600E-04
   47.7599983      -4.87375102E-04
   47.8800011      -4.89900063E-04
   48.0000000      -4.92080697E-04
   48.1199989      -4.93916741E-04
   48.2400017      -4.95408371E-04
   48.3600006      -4.96555993E-04
   48.4799995      -4.97360365E-04
   48.5999985      -4.97822999E-04
   48.7200012      -4.97945526E-04
   48.8400002      -4.97730100E-04
   48.9599991      -4.97179455E-04
   49.0800018      -4.96296678E-04
   49.2000008      -4.95085202E-04
   49.3199997      -4.93548985E-04
   49.4399986      -4.91692219E-04
   49.5600014      -4.89519385E-04
   49.6800003      -4.87035519E-04
   49.7999992      -4.84245946E-04
   49.9199982      -4.81156399E-04
   50.0400009      -4.77773021E-04
   50.1599998      -4.74102271E-04
   50.2799988      -4.70151077E-04
   50.4000015      -4.65926569E-04
   50.5200005      -4.61436226E-04
   50.6399994      -4.56687791E-04
   50.7599983      -4.51689208E-04
   50.8800011      -4.46448714E-04
   51.0000000      -4.40974691E-04
   51.1199989      -4.35275841E-04
   51.2400017      -4.29360982E-04
   51.3600006      -4.23239195E-04
   51.4799995      -4.16919851E-04
   51.5999985      -4.10412467E-04
   51.7200012      -4.03726764E-04
   51.8400002      -3.96872667E-04
   51.9599991      -3.89860274E-04
   52.0800018      -3.82699829E-04
   52.2000008      -3.75401578E-04
   52.3199997      -3.67975794E-04
   52.4399986      -3.60432838E-04
   52.5600014      -3.52783012E-04
   52.6800003      -3.45036620E-04
   52.7999992      -3.37203906E-04
   52.9199982      -3.29295173E-04
   53.0400009      -3.21320753E-04
   53.1599998      -3.13290831E-04
   53.2799988      -3.05215741E-04
   53.4000015      -2.97105755E-04
   53.5200005      -2.88970914E-04
   53.6399994      -2.80821376E-04
   53.7599983      -2.72667006E-04
   53.8800011      -2.64517614E-04
   54.0000000      -2.56382773E-04
   54.1199989      -2.48271885E-04
   54.2400017      -2.40194175E-04
   54.3600006      -2.32158709E-04
   54.4799995      -2.24174306E-04
   54.5999985      -2.16249609E-04
   54.7200012      -2.08393016E-04
   54.8400002      -2.00612718E-04
   54.9599991      -1.92916661E-04
   55.0800018      -1.85312500E-04
   55.2000008      -1.77807684E-04
   55.3199997      -1.70409316E-04
   55.4399986      -1.63124205E-04
   55.5600014      -1.55958827E-04
   55.6800003      -1.48919367E-04
   55.7999992      -1.42011690E-04
   55.9199982      -1.35241367E-04
   56.0400009      -1.28613639E-04
   56.1599998      -1.22133468E-04
   56.2799988      -1.15805546E-04
   56.4000015      -1.09634246E-04
   56.5200005      -1.03623628E-04
   56.6399994      -9.77774107E-05
   56.7599983      -9.20989987E-05
   56.8800011      -8.65914335E-05
   57.0000000      -8.12574071E-05
   57.1199989      -7.60992771E-05
   57.2400017      -7.11190587E-05
   57.3600006      -6.63184182E-05
   57.4799995      -6.16987163E-05
   57.5999985      -5.72609533E-05
   57.7200012      -5.30058278E-05
   57.8400002      -4.89337108E-05
   57.9599991      -4.50446823E-05
   58.0800018      -4.13385533E-05
   58.2000008      -3.78148834E-05
   58.3199997      -3.44729815E-05
   58.4399986      -3.13118944E-05
   58.5600014      -2.83304125E-05
   58.6800003      -2.55270243E-05
   58.7999992      -2.28999197E-05
   58.9199982      -2.04469980E-05
   59.0400009      -1.81658888E-05
   59.1599998      -1.60539985E-05
   59.2799988      -1.41085393E-05
   59.4000015      -1.23265700E-05
   59.5200005      -1.07049873E-05
   59.6399994      -9.24052711E-06
   59.7599983      -7.92974515E-06
   59.8800011      -6.76901254E-06
   60.0000000      -5.75452123E-06
   60.1199989      -4.88230580E-06
   60.2400017      -4.14826718E-06
   60.3600006      -3.54819667E-06
   60.4799995      -3.07778237E-06
   60.5999985      -2.73260389E-06
   60.7200012      -2.50812536E-06
   60.8400002      -2.39969722E-06
   60.9599991      -2.40257077E-06
   61.0800018      -2.51193387E-06
   61.2000008      -2.72294983E-06
   61.3199997      -3.03079173E-06
   61.4399986      -3.43065949E-06
   61.5600014      -3.91777166E-06
   61.6800003      -4.48734954E-06
   61.7999992      -5.13459509E-06
   61.9199982      -5.85468388E-06
   62.0400009      -6.64277786E-06
   62.1599998      -7.49405672E-06
   62.2799988      -8.40374560E-06
   62.4000015      -9.36714059E-06
   62.5200005      -1.03796065E-05
   62.6399994      -1.14365694E-05
   62.7599983      -1.25334946E-05
   62.8800011      -1.36658718E-05
   63.0000000      -1.48292311E-05
   63.1199989      -1.60191721E-05
   63.2400017      -1.72314121E-05
   63.3600006      -1.84618220E-05
   63.4799995      -1.97064564E-05
   63.5999985      -2.09615446E-05
   63.7200012      -2.22234685E-05
   63.8400002      -2.34887102E-05
   63.9599991      -2.47538374E-05
   64.0800018      -2.60154575E-05
   64.1999969      -2.72702455E-05
   64.3199997      -2.85149526E-05
   64.4400024      -2.97464612E-05
   64.5599976      -3.09618081E-05
   64.6800003      -3.21582047E-05
   64.8000031      -3.33330463E-05
   64.9199982      -3.44838882E-05
   65.0400009      -3.56084456E-05
   65.1600037      -3.67045723E-05
   65.2799988      -3.77702454E-05
   65.4000015      -3.88035878E-05
   65.5199966      -3.98028424E-05
   65.6399994      -4.07663974E-05
   65.7600021      -4.16927687E-05
   65.8799973      -4.25806102E-05
   66.0000000      -4.34286630E-05
   66.1200027      -4.42357923E-05
   66.2399979      -4.50009502E-05
   66.3600006      -4.57232054E-05
   66.4800034      -4.64017576E-05
   66.5999985      -4.70359591E-05
   66.7200012      -4.76253153E-05
   66.8399963      -4.81695060E-05
   66.9599991      -4.86683239E-05
   67.0800018      -4.91216852E-05
   67.1999969      -4.95295753E-05
   67.3199997      -4.98920381E-05
   67.4400024      -5.02091752E-05
   67.5599976      -5.04811724E-05
   67.6800003      -5.07082987E-05
   67.8000031      -5.08909361E-05
   67.9199982      -5.10295977E-05
   68.0400009      -5.11248909E-05
   68.1600037      -5.11775179E-05
   68.2799988      -5.11882354E-05
   68.4000015      -5.11578291E-05
   68.5199966      -5.10871105E-05
   68.6399994      -5.09769307E-05
   68.7600021      -5.08281919E-05
   68.8799973      -5.06418837E-05
   69.0000000      -5.04190721E-05
   69.1200027      -5.01609029E-05
   69.2399979      -4.98685695E-05
   69.3600006      -4.95432650E-05
   69.4800034      -4.91861792E-05
   69.5999985      -4.87984580E-05
   69.7200012      -4.83812400E-05
   69.8399963      -4.79356895E-05
   69.9599991      -4.74630069E-05
   70.0800018      -4.69644838E-05
   70.1999969      -4.64414770E-05
   70.3199997      -4.58953909E-05
   70.4400024      -4.53276443E-05
   70.5599976      -4.47396123E-05
   70.6800003      -4.41326301E-05
   70.8000031      -4.35079710E-05
   70.9199982      -4.28668718E-05
   71.0400009      -4.22105550E-05
   71.1600037      -4.15402428E-05
   71.2799988      -4.08571905E-05
   71.4000015      -4.01626494E-05
   71.5199966      -3.94578710E-05
   71.6399994      -3.87440705E-05
   71.7600021      -3.80224119E-05
   71.8799973      -3.72940121E-05
   72.0000000      -3.65599408E-05
   72.1200027      -3.58212237E-05
   72.2399979      -3.50788760E-05
   72.3600006      -3.43339088E-05
   72.4800034      -3.35873046E-05
   72.5999985      -3.28400638E-05
   72.7200012      -3.20931686E-05