  -30.0000000       0.00000000    
  -29.8799992       0.00000000    
  -29.7600002       0.00000000    
  -29.6399994       0.00000000    
  -29.5200005       0.00000000    
  -29.3999996       0.00000000    
  -29.2800007       2.43385751E-25
  -29.1599998       3.28638073E-24
  -29.0400009       2.14453620E-23
  -28.9200001       9.01600046E-23
  -28.7999992       2.71764172E-22
  -28.6800003       6.10838299E-22
  -28.5599995       1.00732151E-21
  -28.4400005       1.05398188E-21
  -28.3199997       3.13312043E-23
  -28.2000008      -2.66644498E-21
  -28.0799999      -6.60074054E-21
  -27.9599991      -9.35238431E-21
  -27.8400002      -6.74449386E-21
  -27.7199993       4.54543421E-21
  -27.6000004       2.19860035E-20
  -27.4799995       3.23227901E-20
  -27.3600006       1.19087803E-20
  -27.2399998      -6.23232706E-20
  -27.1200008      -1.89598521E-19
  -27.0000000      -3.16321647E-19
  -26.8799992      -3.18274956E-19
  -26.7600002      -1.86314016E-20
  -26.6399994       7.34470054E-19
  -26.5200005       1.92305596E-18
  -26.3999996       3.17593515E-18
  -26.2800007       3.63246316E-18
  -26.1599998       2.00177874E-18
  -26.0400009      -3.00532046E-18
  -25.9200001      -1.17643256E-17
  -25.7999992      -2.24694002E-17
  -25.6800003      -3.00333332E-17
  -25.5599995      -2.61127139E-17
  -25.4400005      -1.38766837E-18
  -25.3199997       4.92579272E-17
  -25.2000008       1.19413951E-16
  -25.0799999       1.84581701E-16
  -24.9599991       2.01292973E-16
  -24.8400002       1.17242621E-16
  -24.7199993      -1.04957838E-16
  -24.6000004      -4.54235182E-16
  -24.4799995      -8.40283630E-16
  -24.3600006      -1.08533529E-15
  -24.2399998      -9.58584434E-16
  -24.1200008      -2.62336268E-16
  -24.0000000       1.04397954E-15
  -23.8799992       2.72453124E-15
  -23.7600002       4.21709244E-15
  -23.6399994       4.71648274E-15
  -23.5200005       3.42165185E-15
  -23.3999996      -8.97351866E-17
  -23.2800007      -5.47543061E-15
  -23.1599998      -1.14074357E-14
  -23.0400009      -1.56924593E-14
  -22.9200001      -1.58277678E-14
  -22.7999992      -9.92515938E-15
  -22.6800003       2.25737054E-15
  -22.5599995       1.85830372E-14
  -22.4400005       3.45246360E-14
  -22.3199997       4.41270860E-14
  -22.2000008       4.18601548E-14
  -22.0799999       2.48698428E-14
  -21.9599991      -5.18054880E-15
  -21.8400002      -4.15472066E-14
  -21.7199993      -7.36862963E-14
  -21.6000004      -9.03155114E-14
  -21.4799995      -8.34265450E-14
  -21.3600006      -5.18181486E-14
  -21.2399998      -2.59282630E-15
  -21.1200008       5.04117960E-14
  -21.0000000       9.11799052E-14
  -20.8799992       1.07656485E-13
  -20.7600002       9.70583341E-14
  -20.6399994       6.78065731E-14
  -20.5200005       3.65286652E-14
  -20.3999996       2.05284584E-14
  -20.2800007       2.83565370E-14
  -20.1599998       5.26532316E-14
  -20.0400009       6.93946718E-14
  -19.9200001       4.56804021E-14
  -19.7999992      -4.52967301E-14
  -19.6800003      -2.07199682E-13
  -19.5599995      -4.08837515E-13
  -19.4400005      -5.84723784E-13
  -19.3199997      -6.51100376E-13
  -19.2000008      -5.34627301E-13
  -19.0799999      -2.04858686E-13
  -18.9599991       3.01891650E-13
  -18.8400002       8.78646060E-13
  -18.7199993       1.36924022E-12
  -18.6000004       1.61152092E-12
  -18.4799995       1.48971406E-12
  -18.3600006       9.78387076E-13
  -18.2399998       1.61673897E-13
  -18.1200008      -7.81029863E-13
  -18.0000000      -1.62046060E-12
  -17.8799992      -2.14081400E-12
  -17.7600002      -2.20171559E-12
  -17.6399994      -1.78016358E-12
  -17.5200005      -9.80510703E-13
  -17.3999996      -1.04133460E-14
  -17.2800007       8.70200505E-13
  -17.1599998       1.41453689E-12
  -17.0400009       1.45471905E-12
  -16.9200001       9.55238492E-13
  -16.7999992       4.31294947E-14
  -16.6800003      -9.94925713E-13
  -16.5599995      -1.75671164E-12
  -16.4400005      -1.81304960E-12
  -16.3199997      -8.33432010E-13
  -16.2000008       1.27451814E-12
  -16.0799999       4.25127641E-12
  -15.9600000       7.44535249E-12
  -15.8400002       9.88750748E-12
  -15.7200003       1.04928869E-11
  -15.6000004       8.36284861E-12
  -15.4799995       3.11435469E-12
  -15.3599997      -4.86378516E-12
  -15.2399998      -1.43268973E-11
  -15.1199999      -2.33243425E-11
  -15.0000000      -2.95797449E-11
  -14.8800001      -3.10244504E-11
  -14.7600002      -2.63504982E-11
  -14.6400003      -1.54306255E-11
  -14.5200005       5.19697295E-13
  -14.3999996       1.90957788E-11
  -14.2799997       3.71446658E-11
  -14.1599998       5.13871688E-11
  -14.0400000       5.90674176E-11
  -13.9200001       5.84733512E-11
  -13.8000002       4.92113190E-11
  -13.6800003       3.21883284E-11
  -13.5600004       9.33598598E-12
  -13.4399996      -1.68212180E-11
  -13.3199997      -4.36119647E-11
  -13.1999998      -6.85417140E-11
  -13.0799999      -8.94060798E-11
  -12.9600000      -1.04191308E-10
  -12.8400002      -1.10856657E-10
  -12.7200003      -1.07171653E-10
  -12.6000004      -9.08021297E-11
  -12.4799995      -5.97809441E-11
  -12.3599997      -1.33592078E-11
  -12.2399998       4.69503221E-11
  -12.1199999       1.16491733E-10
  -12.0000000       1.87167809E-10
  -11.8800001       2.48061571E-10
  -11.7600002       2.87068175E-10
  -11.6400003       2.93284508E-10
  -11.5200005       2.59581051E-10
  -11.3999996       1.84613103E-10
  -11.2799997       7.36146352E-11
  -11.1599998      -6.23391894E-11
  -11.0400000      -2.08410844E-10
  -10.9200001      -3.48756274E-10
  -10.8000002      -4.69039474E-10
  -10.6800003      -5.57884017E-10
  -10.5600004      -6.06876049E-10
  -10.4399996      -6.09350070E-10
  -10.3199997      -5.58739777E-10
  -10.1999998      -4.47506698E-10
  -10.0799999      -2.67451949E-10
  -9.96000004      -1.16156989E-11
  -9.84000015       3.22786298E-10
  -9.72000027       7.31534333E-10
  -9.60000038       1.20198806E-09
  -9.47999954       1.71400216E-09
  -9.35999966       2.24328400E-09
  -9.23999977       2.76637624E-09
  -9.11999989       3.26576410E-09
  -9.00000000       3.73345399E-09
  -8.88000011       4.17183754E-09
  -8.76000023       4.59155203E-09
  -8.64000034       5.00708230E-09
  -8.52000046       5.43160272E-09
  -8.39999962       5.87278448E-09
  -8.27999973       6.33092778E-09
  -8.15999985       6.79994283E-09
  -8.03999996       7.27072225E-09
  -7.92000008       7.73566367E-09
  -7.80000019       8.19271317E-09
  -7.67999983       8.64748628E-09
  -7.55999994       9.11265996E-09
  -7.44000006       9.60475255E-09
  -7.32000017       1.01392956E-08
  -7.19999981       1.07260787E-08
  -7.07999992       1.13662164E-08
  -6.96000004       1.20524346E-08
  -6.84000015       1.27729045E-08
  -6.71999979       1.35178118E-08
  -6.59999990       1.42866581E-08
  -6.48000002       1.50937058E-08
  -6.36000013       1.59692171E-08
  -6.23999977       1.69551804E-08
  -6.11999989       1.80960829E-08
  -6.00000000       1.94270058E-08
  -5.88000011       2.09626307E-08
  -5.76000023       2.26909247E-08
  -5.63999987       2.45740530E-08
  -5.51999998       2.65569451E-08
  -5.40000010       2.85814341E-08
  -5.28000021       3.06019423E-08
  -5.15999985       3.25980984E-08
  -5.03999996       3.45805269E-08
  -4.92000008       3.65882613E-08
  -4.80000019       3.86789978E-08
  -4.67999983       4.09156868E-08
  -4.55999994       4.33539746E-08
  -4.44000006       4.60346357E-08
  -4.32000017       4.89829901E-08
  -4.19999981       5.22149612E-08
  -4.07999992       5.57467885E-08
  -3.96000004       5.96043179E-08
  -3.83999991       6.38278053E-08
  -3.72000003       6.84699089E-08
  -3.59999990       7.35869676E-08
  -3.48000002       7.92261048E-08
  -3.35999990       8.54124167E-08
  -3.24000001       9.21406098E-08
  -3.11999989       9.93742049E-08
  -3.00000000       1.07052884E-07
  -2.88000011       1.15106175E-07
  -2.75999999       1.23469292E-07
  -2.64000010       1.32096844E-07
  -2.51999998       1.40970798E-07
  -2.40000010       1.50101499E-07
  -2.27999997       1.59522855E-07
  -2.16000009       1.69285030E-07
  -2.03999996       1.79447923E-07
  -1.91999996       1.90077884E-07
  -1.79999995       2.01248227E-07
  -1.67999995       2.13041162E-07
  -1.55999994       2.25548348E-07
  -1.44000006       2.38866988E-07
  -1.32000005       2.53090462E-07
  -1.20000005       2.68295139E-07
  -1.08000004       2.84527545E-07
 -0.959999979       3.01796206E-07
 -0.839999974       3.20072559E-07
 -0.720000029       3.39302431E-07
 -0.600000024       3.59425712E-07
 -0.479999989       3.80399825E-07
 -0.360000014       4.02219968E-07
 -0.239999995       4.24930278E-07
 -0.119999997       4.48621648E-07
  -1.11022302E-15   4.73416009E-07
  0.119999997       4.99441114E-07
  0.239999995       5.26802580E-07
  0.360000014       5.55562337E-07
  0.479999989       5.85730447E-07
  0.600000024       6.17275191E-07
  0.720000029       6.50148991E-07
  0.839999974       6.84325016E-07
  0.959999979       7.19831462E-07
   1.08000004       7.56772351E-07
   1.20000005       7.95325832E-07
   1.32000005       8.35716151E-07
   1.44000006       8.78167270E-07
   1.55999994       9.22850688E-07
   1.67999995       9.69844450E-07
   1.79999995       1.01911951E-06
   1.91999996       1.07055905E-06
   2.03999996       1.12400699E-06
   2.16000009       1.17933052E-06
   2.27999997       1.23647874E-06
   2.40000010       1.29551415E-06
   2.51999998       1.35660935E-06
   2.64000010       1.42000999E-06
   2.75999999       1.48597542E-06
   2.88000011       1.55471855E-06
   3.00000000       1.62636468E-06
   3.11999989       1.70093983E-06
   3.24000001       1.77839183E-06
   3.35999990       1.85863257E-06
   3.48000002       1.94158497E-06
   3.59999990       2.02721867E-06
   3.72000003       2.11556357E-06
   3.83999991       2.20669881E-06
   3.96000004       2.30072692E-06
   4.07999992       2.39774363E-06
   4.19999981       2.49781647E-06
   4.32000017       2.60097977E-06
   4.44000006       2.70724445E-06
   4.55999994       2.81661755E-06
   4.67999983       2.92911977E-06
   4.80000019       3.04479454E-06
   4.92000008       3.16370119E-06
   5.03999996       3.28589931E-06
   5.15999985       3.41142641E-06
   5.28000021       3.54028134E-06
   5.40000010       3.67242114E-06
   5.51999998       3.80777306E-06
   5.63999987       3.94625840E-06
   5.76000023       4.08781989E-06
   5.88000011       4.23244319E-06
   6.00000000       4.38015786E-06
   6.11999989       4.53102848E-06
   6.23999977       4.68512326E-06
   6.36000013       4.84248358E-06
   6.48000002       5.00309943E-06
   6.59999990       5.16689988E-06
   6.71999979       5.33376351E-06
   6.84000015       5.50354389E-06
   6.96000004       5.67609777E-06
   7.07999992       5.85130374E-06
   7.19999981       6.02907221E-06
   7.32000017       6.20933542E-06
   7.44000006       6.39202972E-06
   7.55999994       6.57707096E-06
   7.67999983       6.76434092E-06
   7.80000019       6.95368681E-06
   7.92000008       7.14492262E-06
   8.03999996       7.33783827E-06
   8.15999985       7.53220684E-06
   8.27999973       7.72777821E-06
   8.39999962       7.92427545E-06
   8.52000046       8.12138842E-06
   8.64000034       8.31877787E-06
   8.76000023       8.51609002E-06
   8.88000011       8.71298289E-06
   9.00000000       8.90914271E-06
   9.11999989       9.10429935E-06
   9.23999977       9.29821545E-06
   9.35999966       9.49065452E-06
   9.47999954       9.68134646E-06
   9.60000038       9.86995656E-06
   9.72000027       1.00560692E-05
   9.84000015       1.02392023E-05
   9.96000004       1.04188393E-05
   10.0799999       1.05944746E-05
   10.1999998       1.07656342E-05
   10.3199997       1.09318917E-05
   10.4399996       1.10928449E-05
   10.5600004       1.12480766E-05
   10.6800003       1.13971237E-05
   10.8000002       1.15394432E-05
   10.9200001       1.16744195E-05
   11.0400000       1.18013777E-05
   11.1599998       1.19196156E-05
   11.2799997       1.20284385E-05
   11.3999996       1.21271623E-05
   11.5200005       1.22151205E-05
   11.6400003       1.22916426E-05
   11.7600002       1.23560440E-05
   11.8800001       1.24076187E-05
   12.0000000       1.24456465E-05
   12.1199999       1.24694125E-05
   12.2399998       1.24782091E-05
   12.3599997       1.24713442E-05
   12.4799995       1.24481112E-05
   12.6000004       1.24077578E-05
   12.7200003       1.23494483E-05
   12.8400002       1.22722404E-05
   12.9600000       1.21750900E-05
   13.0799999       1.20568857E-05
   13.1999998       1.19164952E-05
   13.3199997       1.17528298E-05
   13.4399996       1.15648745E-05
   13.5600004       1.13517044E-05
   13.6800003       1.11124546E-05
   13.8000002       1.08462737E-05
   13.9200001       1.05522595E-05
   14.0400000       1.02294061E-05
   14.1599998       9.87657768E-06
   14.2799997       9.49250989E-06
   14.3999996       9.07584854E-06
   14.5200005       8.62520119E-06
   14.6400003       8.13920178E-06
   14.7600002       7.61656111E-06
   14.8800001       7.05608545E-06
   15.0000000       6.45667114E-06
   15.1199999       5.81727272E-06
   15.2399998       5.13684518E-06
   15.3599997       4.41428983E-06
   15.4799995       3.64840935E-06
   15.6000004       2.83788859E-06
   15.7200003       1.98129533E-06
   15.8400002       1.07710378E-06
   15.9600000       1.23727290E-07
   16.0799999      -8.80447089E-07
   16.2000008      -1.93702567E-06
   16.3199997      -3.04758714E-06
   16.4400005      -4.21366576E-06
   16.5599995      -5.43674605E-06
   16.6800003      -6.71826911E-06
   16.7999992      -8.05964919E-06
   16.9200001      -9.46229648E-06
   17.0400009      -1.09276552E-05
   17.1599998      -1.24572362E-05
   17.2800007      -1.40526217E-05
   17.3999996      -1.57154627E-05
   17.5200005      -1.74474389E-05
   17.6399994      -1.92502321E-05
   17.7600002      -2.11254737E-05
   17.8799992      -2.30747610E-05
   18.0000000      -2.50996527E-05
   18.1200008      -2.72017551E-05
   18.2399998      -2.93827525E-05
   18.3600006      -3.16444421E-05
   18.4799995      -3.39887265E-05
   18.6000004      -3.64175430E-05
   18.7199993      -3.89327797E-05
   18.8400002      -4.15362047E-05
   18.9599991      -4.42294404E-05
   19.0799999      -4.70139857E-05
   19.2000008      -4.98913178E-05
   19.3199997      -5.28629862E-05
   19.4400005      -5.59306900E-05
   19.5599995      -5.90963100E-05
   19.6800003      -6.23618616E-05
   19.7999992      -6.57293640E-05
   19.9200001      -6.92007670E-05
   20.0400009      -7.27778533E-05
   20.1599998      -7.64622528E-05
   20.2800007      -8.02554932E-05
   20.3999996      -8.41590881E-05
   20.5200005      -8.81746382E-05
   20.6399994      -9.23038388E-05
   20.7600002      -9.65484651E-05
   20.8799992      -1.00910307E-04
   21.0000000      -1.05391075E-04
   21.1200008      -1.09992332E-04
   21.2399998      -1.14715491E-04
   21.3600006      -1.19561839E-04
   21.4799995      -1.24532628E-04
   21.6000004      -1.29629174E-04
   21.7199993      -1.34852860E-04
   21.8400002      -1.40205142E-04
   21.9599991      -1.45687547E-04
   22.0799999      -1.51301530E-04
   22.2000008      -1.57048416E-04
   22.3199997      -1.62929427E-04
   22.4400005      -1.68945597E-04
   22.5599995      -1.75097870E-04
   22.6800003      -1.81387091E-04
   22.7999992      -1.87814061E-04
   22.9200001      -1.94379521E-04
   23.0400009      -2.01084156E-04
   23.1599998      -2.07928577E-04
   23.2800007      -2.14913249E-04
   23.3999996      -2.22038565E-04
   23.5200005      -2.29304729E-04
   23.6399994      -2.36711930E-04
   23.7600002      -2.44260242E-04
   23.8799992      -2.51949707E-04
   24.0000000      -2.59780296E-04
   24.1200008      -2.67751922E-04
   24.2399998      -2.75864382E-04
   24.3600006      -2.84117268E-04
   24.4799995      -2.92510085E-04
   24.6000004      -3.01042048E-04
   24.7199993      -3.09712254E-04
   24.8400002      -3.18519596E-04
   24.9599991      -3.27462767E-04
   25.0799999      -3.36540368E-04
   25.2000008      -3.45750683E-04
   25.3199997      -3.55092023E-04
   25.4400005      -3.64562322E-04
   25.5599995      -3.74159659E-04
   25.6800003      -3.83881765E-04
   25.7999992      -3.93726456E-04
   25.9200001      -4.03691374E-04
   26.0400009      -4.13773931E-04
   26.1599998      -4.23971476E-04
   26.2800007      -4.34281013E-04
   26.3999996      -4.44699195E-04
   26.5200005      -4.55222442E-04
   26.6399994      -4.65846882E-04
   26.7600002      -4.76568384E-04
   26.8799992      -4.87382582E-04
   27.0000000      -4.98285051E-04
   27.1200008      -5.09271282E-04
   27.2399998      -5.20336791E-04
   27.3600006      -5.31476690E-04
   27.4799995      -5.42686146E-04
   27.6000004      -5.53959981E-04
   27.7199993      -5.65292663E-04
   27.8400002      -5.76678547E-04
   27.9599991      -5.88111463E-04
   28.0799999      -5.99585241E-04
   28.2000008      -6.11093245E-04
   28.3199997      -6.22628722E-04
   28.4400005      -6.34184922E-04
   28.5599995      -6.45754859E-04
   28.6800003      -6.57331431E-04
   28.7999992      -6.68907422E-04
   28.9200001      -6.80475554E-04
   29.0400009      -6.92028261E-04
   29.1599998      -7.03557744E-04
   29.2800007      -7.15055910E-04
   29.3999996      -7.26514438E-04
   29.5200005      -7.37924536E-04
   29.6399994      -7.49277591E-04
   29.7600002      -7.60564697E-04
   29.8799992      -7.71776831E-04
   30.0000000      -7.82905146E-04
   30.1200008      -7.93940620E-04
   30.2399998      -8.04874056E-04
   30.3600006      -8.15696083E-04
   30.4799995      -8.26397270E-04
   30.6000004      -8.36967665E-04
   30.7199993      -8.47397780E-04
   30.8400002      -8.57677602E-04
   30.9599991      -8.67797411E-04
   31.0799999      -8.77747138E-04
   31.2000008      -8.87516886E-04
   31.3199997      -8.97096819E-04
   31.4400005      -9.06476867E-04
   31.5599995      -9.15647193E-04
   31.6800003      -9.24597727E-04
   31.7999992      -9.33318574E-04
   31.9200001      -9.41799721E-04
   32.0400009      -9.50031157E-04
   32.1599998      -9.58002929E-04
   32.2799988      -9.65705025E-04
   32.4000015      -9.73127666E-04
   32.5200005      -9.80261131E-04
   32.6399994      -9.87095991E-04
   32.7599983      -9.93622933E-04
   32.8800011      -9.99832642E-04
   33.0000000      -1.00571616E-03
   33.1199989      -1.01126428E-03
   33.2400017      -1.01646828E-03
   33.3600006      -1.02131919E-03
   33.4799995      -1.02580863E-03
   33.5999985      -1.02992856E-03
   33.7200012      -1.03367097E-03
   33.8400002      -1.03702839E-03
   33.9599991      -1.03999360E-03
   34.0800018      -1.04255951E-03
   34.2000008      -1.04471901E-03
   34.3199997      -1.04646524E-03
   34.4399986      -1.04779215E-03
   34.5600014      -1.04869367E-03
   34.6800003      -1.04916457E-03
   34.7999992      -1.04919972E-03
   34.9199982      -1.04879425E-03
   35.0400009      -1.04794372E-03
   35.1599998      -1.04664417E-03
   35.2799988      -1.04489166E-03
   35.4000015      -1.04268314E-03
   35.5200005      -1.04001595E-03
   35.6399994      -1.03688787E-03
   35.7599983      -1.03329739E-03
   35.8800011      -1.02924311E-03
   36.0000000      -1.02472422E-03
   36.1199989      -1.01974024E-03
   36.2400017      -1.01429119E-03
   36.3600006      -1.00837729E-03
   36.4799995      -1.00199971E-03
   36.5999985      -9.95159731E-04
   36.7200012      -9.87859792E-04
   36.8400002      -9.80101991E-04
   36.9599991      -9.71889298E-04
   37.0800018      -9.63225146E-04
   37.2000008      -9.54113784E-04
   37.3199997      -9.44559753E-04
   37.4399986      -9.34568350E-04
   37.5600014      -9.24145570E-04
   37.6800003      -9.13297699E-04
   37.7999992      -9.02031490E-04
   37.9199982      -8.90353927E-04
   38.0400009      -8.78272520E-04
   38.1599998      -8.65795242E-04
   38.2799988      -8.52930767E-04
   38.4000015      -8.39688175E-04
   38.5200005      -8.26077070E-04
   38.6399994      -8.12107872E-04
   38.7599983      -7.97790941E-04
   38.8800011      -7.83137104E-04
   39.0000000      -7.68157712E-04
   39.1199989      -7.52863998E-04
   39.2400017      -7.37268303E-04
   39.3600006      -7.21383200E-04
   39.4799995      -7.05221843E-04
   39.5999985      -6.88797794E-04
   39.7200012      -6.72125025E-04
   39.8400002      -6.55217620E-04
   39.9599991      -6.38089899E-04
   40.0800018      -6.20756298E-04
   40.2000008      -6.03231543E-04
   40.3199997      -5.85530594E-04
   40.4399986      -5.67668874E-04
   40.5600014      -5.49661869E-04
   40.6800003      -5.31525351E-04
   40.7999992      -5.13275270E-04
   40.9199982      -4.94927634E-04
   41.0400009      -4.76498477E-04
   41.1599998      -4.58004128E-04
   41.2799988      -4.39461000E-04
   41.4000015      -4.20885597E-04
   41.5200005      -4.02294594E-04
   41.6399994      -3.83704493E-04
   41.7599983      -3.65131622E-04
   41.8800011      -3.46592220E-04
   42.0000000      -3.28102469E-04
   42.1199989      -3.09678493E-04
   42.2400017      -2.91336357E-04
   42.3600006      -2.73092184E-04
   42.4799995      -2.54962099E-04
   42.5999985      -2.36961889E-04
   42.7200012      -2.19107111E-04
   42.8400002      -2.01412870E-04
   42.9599991      -1.83893877E-04
   43.0800018      -1.66564452E-04
   43.2000008      -1.49438682E-04
   43.3199997      -1.32530506E-04
   43.4399986      -1.15853734E-04
   43.5600014      -9.94219808E-05
   43.6800003      -8.32485966E-05
   43.7999992      -6.73465402E-05
   43.9199982      -5.17282060E-05
   44.0400009      -3.64054140E-05
   44.1599998      -2.13893818E-05
   44.2799988      -6.69076644E-06
   44.4000015       7.68028804E-06
   44.5200005       2.17140841E-05
   44.6399994       3.54013209E-05
   44.7599983       4.87330653E-05
   44.8800011       6.17008409E-05
   45.0000000       7.42966804E-05
   45.1199989       8.65132242E-05
   45.2400017       9.83437858E-05
   45.3600006       1.09782333E-04
   45.4799995       1.20823417E-04
   45.5999985       1.31462133E-04
   45.7200012       1.41694021E-04
   45.8400002       1.51515065E-04
   45.9599991       1.60921758E-04
   46.0800018       1.69911145E-04
   46.2000008       1.78480957E-04
   46.3199997       1.86629652E-04
   46.4399986       1.94356326E-04
   46.5600014       2.01660630E-04
   46.6800003       2.08542755E-04
   46.7999992       2.15003296E-04
   46.9199982       2.21043345E-04
   47.0400009       2.26664532E-04
   47.1599998       2.31869170E-04
   47.2799988       2.36660300E-04
   47.4000015       2.41041547E-04
   47.5200005       2.45017087E-04
   47.6399994       2.48591474E-04
   47.7599983       2.51769496E-04
   47.8800011       2.54556304E-04
   48.0000000       2.56957283E-04
   48.1199989       2.58978311E-04
   48.2400017       2.60625791E-04
   48.3600006       2.61906738E-04
   48.4799995       2.62828689E-04
   48.5999985       2.63399706E-04
   48.7200012       2.63628084E-04
   48.8400002       2.63522466E-04
   48.9599991       2.63091701E-04
   49.0800018       2.62344780E-04
   49.2000008       2.61291192E-04
   49.3199997       2.59940483E-04
   49.4399986       2.58302636E-04
   49.5600014       2.56387691E-04
   49.6800003       2.54205952E-04
   49.7999992       2.51767720E-04
   49.9199982       2.49083561E-04
   50.0400009       2.46164069E-04
   50.1599998       2.43020200E-04
   50.2799988       2.39663132E-04
   50.4000015       2.36104199E-04
   50.5200005       2.32354767E-04
   50.6399994       2.28426143E-04
   50.7599983       2.24329560E-04
   50.8800011       2.20076065E-04
   51.0000000       2.15676642E-04
   51.1199989       2.11142222E-04
   51.2400017       2.06483805E-04
   51.3600006       2.01712362E-04
   51.4799995       1.96838824E-04
   51.5999985       1.91874031E-04
   51.7200012       1.86828649E-04
   51.8400002       1.81713098E-04
   51.9599991       1.76537724E-04
   52.0800018       1.71312742E-04
   52.2000008       1.66048267E-04
   52.3199997       1.60754280E-04
   52.4399986       1.55440590E-04
   52.5600014       1.50116728E-04
   52.6800003       1.44791935E-04
   52.7999992       1.39475073E-04
   52.9199982       1.34174668E-04
   53.0400009       1.28898959E-04
   53.1599998       1.23655947E-04
   53.2799988       1.18453390E-04
   53.4000015       1.13298796E-04
   53.5200005       1.08199441E-04
   53.6399994       1.03162274E-04
   53.7599983       9.81939957E-05
   53.8800011       9.33009796E-05
   54.0000000       8.84892943E-05
   54.1199989       8.37646803E-05
   54.2400017       7.91325147E-05
   54.3600006       7.45978323E-05
   54.4799995       7.01653480E-05
   54.5999985       6.58394856E-05
   54.7200012       6.16244361E-05
   54.8400002       5.75241575E-05
   54.9599991       5.35423678E-05
   55.0800018       4.96824105E-05
   55.2000008       4.59471812E-05
   55.3199997       4.23390738E-05
   55.4399986       3.88599619E-05
   55.5600014       3.55113407E-05
   55.6800003       3.22944688E-05
   55.7999992       2.92105415E-05
   55.9199982       2.62607464E-05
   56.0400009       2.34462259E-05
   56.1599998       2.07679241E-05
   56.2799988       1.82264102E-05
   56.4000015       1.58217445E-05
   56.5200005       1.35534792E-05
   56.6399994       1.14207733E-05
   56.7599983       9.42257884E-06
   56.8800011       7.55781184E-06
   57.0000000       5.82540724E-06
   57.1199989       4.22425319E-06
   57.2400017       2.75302637E-06
   57.3600006       1.41004000E-06
   57.4799995       1.93171545E-07
   57.5999985      -9.00068699E-07
   57.7200012      -1.87236469E-06
   57.8400002      -2.72639249E-06
   57.9599991      -3.46469164E-06
   58.0800018      -4.08967117E-06
   58.2000008      -4.60374440E-06
   58.3199997      -5.00951683E-06
   58.4399986      -5.30992929E-06
   58.5600014      -5.50828418E-06
   58.6800003      -5.60814078E-06
   58.7999992      -5.61313618E-06
   58.9199982      -5.52682468E-06
   59.0400009      -5.35260915E-06
   59.1599998      -5.09379061E-06
   59.2799988      -4.75369552E-06
   59.4000015      -4.33580271E-06
   59.5200005      -3.84379837E-06
   59.6399994      -3.28152851E-06
   59.7599983      -2.65287304E-06
   59.8800011      -1.96161773E-06
   60.0000000      -1.21137464E-06
   60.1199989      -4.05590612E-07
   60.2400017       4.52371921E-07
   60.3600006       1.35914229E-06
   60.4799995       2.31128297E-06
   60.5999985       3.30530020E-06
   60.7200012       4.33769992E-06
   60.8400002       5.40505744E-06
   60.9599991       6.50404991E-06
   61.0800018       7.63143453E-06
   61.2000008       8.78399533E-06
   61.3199997       9.95849496E-06
   61.4399986       1.11516656E-05
   61.5600014       1.23602586E-05
   61.6800003       1.35811233E-05
   61.7999992       1.48112895E-05
   61.9199982       1.60479904E-05
   62.0400009       1.72886630E-05
   62.1599998       1.85308945E-05
   62.2799988       1.97723821E-05
   62.4000015       2.10108901E-05
   62.5200005       2.22442322E-05
   62.6399994       2.34702784E-05
   62.7599983       2.46869186E-05
   62.8800011       2.58920663E-05
   63.0000000       2.70836281E-05
   63.1199989       2.82595429E-05
   63.2400017       2.94178371E-05
   63.3600006       3.05566900E-05
   63.4799995       3.16745172E-05
   63.5999985       3.27699599E-05
   63.7200012       3.38418249E-05
   63.8400002       3.48889844E-05
   63.9599991       3.59102924E-05
   64.0800018       3.69045774E-05
   64.1999969       3.78706827E-05
   64.3199997       3.88076041E-05
   64.4400024       3.97145959E-05
   64.5599976       4.05911705E-05
   64.6800003       4.14370115E-05
   64.8000031       4.22518060E-05
   64.9199982       4.30351101E-05
   65.0400009       4.37863018E-05
   65.1600037       4.45046971E-05
   65.2799988       4.51897031E-05
   65.4000015       4.58410213E-05
   65.5199966       4.64586956E-05
   65.6399994       4.70430350E-05
   65.7600021       4.75943925E-05
   65.8799973       4.81129609E-05
   66.0000000       4.85986784E-05
   66.1200027       4.90513194E-05
   66.2399979       4.94706910E-05
   66.3600006       4.98568879E-05
   66.4800034       5.02104049E-05
   66.5999985       5.05320641E-05
   66.7200012       5.08228040E-05
   66.8399963       5.10834216E-05
   66.9599991       5.13143968E-05
   67.0800018       5.15159336E-05
   67.1999969       5.16881591E-05
   67.3199997       5.18313864E-05
   67.4400024       5.19463101E-05
   67.5599976       5.20339672E-05
   67.6800003       5.20955582E-05
   67.8000031       5.21321490E-05
   67.9199982       5.21444672E-05
   68.0400009       5.21328766E-05
   68.1600037       5.20975409E-05
   68.2799988       5.20387257E-05
   68.4000015       5.19570203E-05
   68.5199966       5.18534180E-05
   68.6399994       5.17291955E-05
   68.7600021       5.15856664E-05
   68.8799973       5.14239218E-05
   69.0000000       5.12447441E-05
   69.1200027       5.10486752E-05
   69.2399979       5.08362027E-05
   69.3600006       5.06079741E-05
   69.4800034       5.03649171E-05
   69.5999985       5.01081813E-05
   69.7200012       4.98389272E-05
   69.8399963       4.95581517E-05
   69.9599991       4.92665386E-05
   70.0800018       4.89644663E-05
   70.1999969       4.86521640E-05
   70.3199997       4.83299045E-05
   70.4400024       4.79981718E-05
   70.5599976       4.76577225E-05
   70.6800003       4.73095461E-05
   70.8000031       4.69547376E-05
   70.9199982       4.65943449E-05
   71.0400009       4.62292701E-05
   71.1600037       4.58602335E-05
   71.2799988       4.54877809E-05
   71.4000015       4.51123487E-05
   71.5199966       4.47343191E-05
   71.6399994       4.43540812E-05
   71.7600021       4.39720679E-05
   71.8799973       4.35887741E-05
   72.0000000       4.32047455E-05
   72.1200027       4.28205349E-05
   72.2399979       4.24366735E-05
   72.3600006       4.20536053E-05
   72.4800034       4.16716866E-05
   72.5999985       4.12912086E-05
   72.7200012       4.09124514E-05