  -30.0000000       0.00000000    
  -29.8799992       0.00000000    
  -29.7600002       0.00000000    
  -29.6399994       0.00000000    
  -29.5200005       0.00000000    
  -29.3999996       0.00000000    
  -29.2800007       2.10194770E-44
  -29.1599998       2.73253201E-43
  -29.0400009       1.16447902E-42
  -28.9200001       1.28218809E-42
  -28.7999992      -1.77068074E-41
  -28.6800003      -1.34625546E-40
  -28.5599995      -5.14818839E-40
  -28.4400005      -1.21758403E-39
  -28.3199997      -1.47664068E-39
  -28.2000008       1.40822929E-39
  -28.0799999       1.19362057E-38
  -27.9599991       3.16417593E-38
  -27.8400002       4.75892561E-38
  -27.7199993       2.03854118E-38
  -27.6000004      -1.07557101E-37
  -27.4799995      -3.55814410E-37
  -27.3600006      -5.99116751E-37
  -27.2399998      -4.78210298E-37
  -27.1200008       5.17710099E-37
  -27.0000000       2.63778540E-36
  -26.8799992       5.15503383E-36
  -26.7600002       5.77769034E-36
  -26.6399994       1.00824416E-36
  -26.5200005      -1.17716396E-35
  -26.3999996      -3.06076545E-35
  -26.2800007      -4.54814749E-35
  -26.1599998      -3.84468013E-35
  -26.0400009       9.19501973E-36
  -25.9200001       1.02252396E-34
  -25.7999992       2.14874100E-34
  -25.6800003       2.82922411E-34
  -25.5599995       2.18315382E-34
  -25.4400005      -4.87363689E-35
  -25.3199997      -5.09321407E-34
  -25.2000008      -1.02555169E-33
  -25.0799999      -1.32922192E-33
  -24.9599991      -1.09936924E-33
  -24.8400002      -1.16375996E-34
  -24.7199993       1.55675676E-33
  -24.6000004       3.45538879E-33
  -24.4799995       4.75238481E-33
  -24.3600006       4.50655955E-33
  -24.2399998       2.08020146E-33
  -24.1200008      -2.42028391E-33
  -24.0000000      -7.89487940E-33
  -23.8799992      -1.23869907E-32
  -23.7600002      -1.36754706E-32
  -23.6399994      -1.01839093E-32
  -23.5200005      -1.86431035E-33
  -23.3999996       9.38429687E-33
  -23.2800007       2.01015779E-32
  -23.1599998       2.64828180E-32
  -23.0400009       2.60222505E-32
  -22.9200001       1.88198453E-32
  -22.7999992       7.73076790E-33
  -22.6800003      -3.07216312E-33
  -22.5599995      -1.07571464E-32
  -22.4400005      -1.64421009E-32
  -22.3199997      -2.59511713E-32
  -22.2000008      -4.72387422E-32
  -22.0799999      -8.43746805E-32
  -21.9599991      -1.30098989E-31
  -21.8400002      -1.60937942E-31
  -21.7199993      -1.39542911E-31
  -21.6000004      -2.72808788E-32
  -21.4799995       1.94011863E-31
  -21.3600006       4.97755419E-31
  -21.2399998       7.97232494E-31
  -21.1200008       9.51680320E-31
  -21.0000000       8.01990425E-31
  -20.8799992       2.33736143E-31
  -20.7600002      -7.48565241E-31
  -20.6399994      -1.96422661E-30
  -20.5200005      -3.04879431E-30
  -20.3999996      -3.52023318E-30
  -20.2800007      -2.92090485E-30
  -20.1599998      -1.00633705E-30
  -20.0400009       2.07779065E-30
  -19.9200001       5.70418132E-30
  -19.7999992       8.82170481E-30
  -19.6800003       1.01878707E-29
  -19.5599995       8.74249417E-30
  -19.4400005       4.02765704E-30
  -19.3199997      -3.48198203E-30
  -19.2000008      -1.22752658E-29
  -19.0799999      -2.00165601E-29
  -18.9599991      -2.40763963E-29
  -18.8400002      -2.22801491E-29
  -18.7199993      -1.36854295E-29
  -18.6000004       8.46575797E-31
  -18.4799995       1.85044462E-29
  -18.3600006       3.49418912E-29
  -18.2399998       4.52565701E-29
  -18.1200008       4.53663812E-29
  -18.0000000       3.34523649E-29
  -17.8799992       1.10206775E-29
  -17.7600002      -1.68790652E-29
  -17.6399994      -4.26056931E-29
  -17.5200005      -5.80663244E-29
  -17.3999996      -5.76173239E-29
  -17.2800007      -4.08361246E-29
  -17.1599998      -1.39795536E-29
  -17.0400009       1.09715294E-29
  -16.9200001       2.01825933E-29
  -16.7999992       4.17228836E-30
  -16.6800003      -3.55132635E-29
  -16.5599995      -8.20444230E-29
  -16.4400005      -1.04530293E-28
  -16.3199997      -6.66744789E-29
  -16.2000008       5.76250577E-29
  -16.0799999       2.65522087E-28
  -15.9600000       5.10224679E-28
  -15.8400002       6.98225679E-28
  -15.7200003       7.05931325E-28
  -15.6000004       4.18001765E-28
  -15.4799995      -2.18265954E-28
  -15.3599997      -1.13745307E-27
  -15.2399998      -2.12181166E-27
  -15.1199999      -2.81254797E-27
  -15.0000000      -2.78379634E-27
  -14.8800001      -1.67942112E-27
  -14.7600002       6.12179174E-28
  -14.6400003       3.79662846E-27
  -14.5200005       7.09520757E-27
  -14.3999996       9.31850033E-27
  -14.2799997       9.13268199E-27
  -14.1599998       5.50215921E-27
  -14.0400000      -1.78368827E-27
  -13.9200001      -1.16653261E-26
  -13.8000002      -2.16560946E-26
  -13.6800003      -2.81584362E-26
  -13.5600004      -2.73352630E-26
  -13.4399996      -1.64393513E-26
  -13.3199997       4.71395428E-27
  -13.1999998       3.26332281E-26
  -13.0799999       5.99705187E-26
  -12.9600000       7.67259367E-26
  -12.8400002       7.29392256E-26
  -12.7200003       4.24339313E-26
  -12.6000004      -1.34109189E-26
  -12.4799995      -8.33201051E-26
  -12.3599997      -1.46707285E-25
  -12.2399998      -1.78135590E-25
  -12.1199999      -1.55444622E-25
  -12.0000000      -6.97653424E-26
  -11.8800001       6.58785384E-26
  -11.7600002       2.13518516E-25
  -11.6400003       3.16372222E-25
  -11.5200005       3.15556984E-25
  -11.3999996       1.74951797E-25
  -11.2799997      -9.28076120E-26
  -11.1599998      -4.09995344E-25
  -11.0400000      -6.38931629E-25
  -10.9200001      -6.16884544E-25
  -10.8000002      -2.20252381E-25
  -10.6800003       5.55462700E-25
  -10.5600004       1.52726656E-24
  -10.4399996       2.30463327E-24
  -10.3199997       2.35321350E-24
  -10.1999998       1.16053962E-24
  -10.0799999      -1.51213414E-24
  -9.96000004      -5.35349488E-24
  -9.84000015      -9.30762309E-24
  -9.72000027      -1.15920854E-23
  -9.60000038      -1.00431128E-23
  -9.47999954      -2.82947860E-24
  -9.35999966       1.05529087E-23
  -9.23999977       2.82587363E-23
  -9.11999989       4.54496499E-23
  -9.00000000       5.45096512E-23
  -8.88000011       4.65231729E-23
  -8.76000023       1.41408650E-23
  -8.64000034      -4.45220820E-23
  -8.52000046      -1.21912836E-22
  -8.39999962      -1.98510637E-22
  -8.27999973      -2.43533832E-22
  -8.15999985      -2.20420106E-22
  -8.03999996      -9.76329597E-23
  -7.92000008       1.36372543E-22
  -7.80000019       4.57389984E-22
  -7.67999983       7.94391716E-22
  -7.55999994       1.02983936E-21
  -7.44000006       1.01744841E-21
  -7.32000017       6.20313111E-22
  -7.19999981      -2.33583304E-22
  -7.07999992      -1.48933829E-21
  -6.96000004      -2.91552772E-21
  -6.84000015      -4.09148007E-21
  -6.71999979      -4.45551345E-21
  -6.59999990      -3.42914953E-21
  -6.48000002      -6.13300504E-22
  -6.36000013       3.97493283E-21
  -6.23999977       9.68654024E-21
  -6.11999989       1.51319623E-20
  -6.00000000       1.82725474E-20
  -5.88000011       1.67835657E-20
  -5.76000023       8.70362268E-21
  -5.63999987      -6.70479889E-21
  -5.51999998      -2.80683417E-20
  -5.40000010      -5.12757209E-20
  -5.28000021      -6.94527661E-20
  -5.15999985      -7.38509048E-20
  -5.03999996      -5.58110585E-20
  -4.92000008      -9.68854276E-21
  -4.80000019       6.37482378E-20
  -4.67999983       1.54327552E-19
  -4.55999994       2.41072458E-19
  -4.44000006       2.93625414E-19
  -4.32000017       2.77423815E-19
  -4.19999981       1.62788304E-19
  -4.07999992      -6.30907003E-20
  -3.96000004      -3.83695637E-19
  -3.83999991      -7.43994315E-19
  -3.72000003      -1.04900884E-18
  -3.59999990      -1.17431647E-18
  -3.48000002      -9.90890513E-19
  -3.35999990      -4.03345028E-19
  -3.24000001       6.03964839E-19
  -3.11999989       1.92356178E-18
  -3.00000000       3.29886432E-18
  -2.88000011       4.33177199E-18
  -2.75999999       4.53722008E-18
  -2.64000010       3.45000614E-18
  -2.51999998       7.75792224E-19
  -2.40000010      -3.43884603E-18
  -2.27999997      -8.65967360E-18
  -2.16000009      -1.37960301E-17
  -2.03999996      -1.72663051E-17
  -1.91999996      -1.72396086E-17
  -1.79999995      -1.20625300E-17
  -1.67999995      -8.29418291E-19
  -1.55999994       1.60057662E-17
  -1.44000006       3.61357953E-17
  -1.32000005       5.52209994E-17
  -1.20000005       6.72172723E-17
  -1.08000004       6.53433442E-17
 -0.959999979       4.36945685E-17
 -0.839999974      -6.69895786E-19
 -0.720000029      -6.55499607E-17
 -0.600000024      -1.41912760E-16
 -0.479999989      -2.13374799E-16
 -0.360000014      -2.57516518E-16
 -0.239999995      -2.49461632E-16
 -0.119999997      -1.67712100E-16
  -1.11022302E-15  -1.60492457E-18
  0.119999997       2.40957183E-16
  0.239999995       5.27497550E-16
  0.360000014       7.99049907E-16
  0.479999989       9.74600662E-16
  0.600000024       9.63396639E-16
  0.720000029       6.85154416E-16
  0.839999974       9.61194063E-17
  0.959999979      -7.83473924E-16
   1.08000004      -1.84719823E-15
   1.20000005      -2.89351346E-15
   1.32000005      -3.63798787E-15
   1.44000006      -3.75225939E-15
   1.55999994      -2.93071325E-15
   1.67999995      -9.79154840E-16
   1.79999995       2.08817868E-15
   1.91999996       5.96452522E-15
   2.03999996       1.00059485E-14
   2.16000009       1.32533399E-14
   2.27999997       1.45424715E-14
   2.40000010       1.27101105E-14
   2.51999998       6.88368472E-15
   2.64000010      -3.18338614E-15
   2.75999999      -1.67944865E-14
   2.88000011      -3.20948780E-14
   3.00000000      -4.60511112E-14
   3.11999989      -5.47056974E-14
   3.24000001      -5.37535206E-14
   3.35999990      -3.94281911E-14
   3.48000002      -9.60926861E-15
   3.59999990       3.50237587E-14
   3.72000003       9.00408830E-14
   3.83999991       1.46811193E-13
   3.96000004       1.92845102E-13
   4.07999992       2.13149322E-13
   4.19999981       1.92667402E-13
   4.32000017       1.19661117E-13
   4.44000006      -1.03733431E-14
   4.55999994      -1.90926268E-13
   4.67999983      -4.01714523E-13
   4.80000019      -6.07916549E-13
   4.92000008      -7.62291380E-13
   5.03999996      -8.10763837E-13
   5.15999985      -7.01523366E-13
   5.28000021      -3.96952545E-13
   5.40000010       1.13129090E-13
   5.51999998       7.99218439E-13
   5.63999987       1.58377630E-12
   5.76000023       2.33984707E-12
   5.88000011       2.89934743E-12
   6.00000000       3.07265910E-12
   6.11999989       2.67943588E-12
   6.23999977       1.58826012E-12
   6.36000013      -2.39748759E-13
   6.48000002      -2.71063966E-12
   6.59999990      -5.56964457E-12
   6.71999979      -8.39499564E-12
   6.84000015      -1.06218940E-11
   6.96000004      -1.16019069E-11
   7.07999992      -1.06980015E-11
   7.19999981      -7.40885651E-12
   7.32000017      -1.50863762E-12
   7.44000006       6.81865718E-12
   7.55999994       1.68766025E-11
   7.67999983       2.74140519E-11
   7.80000019       3.66694834E-11
   7.92000008       4.25207508E-11
   8.03999996       4.27460116E-11
   8.15999985       3.53838313E-11
   8.27999973       1.91597259E-11
   8.39999962      -6.07442005E-12
   8.52000046      -3.89592490E-11
   8.64000034      -7.63867788E-11
   8.76000023      -1.13480503E-10
   8.88000011      -1.43864087E-10
   9.00000000      -1.60257543E-10
   9.11999989      -1.55396987E-10
   9.23999977      -1.23221072E-10
   9.35999966      -6.02091640E-11
   9.47999954       3.32984959E-11
   9.60000038       1.52010723E-10
   9.72000027       2.85057949E-10
   9.84000015       4.16049278E-10
   9.96000004       5.23990407E-10
   10.0799999       5.85152704E-10
   10.1999998       5.75867354E-10
   10.3199997       4.76073292E-10
   10.4399996       2.73296608E-10
   10.5600004      -3.34054798E-11
   10.6800003      -4.30109837E-10
   10.8000002      -8.85931051E-10
   10.9200001      -1.35277045E-09
   11.0400000      -1.76740600E-09
   11.1599998      -2.05621609E-09
   11.2799997      -2.14253926E-09
   11.3999996      -1.95631955E-09
   11.5200005      -1.44530587E-09
   11.6400003      -5.86689197E-10
   11.7600002       6.02228045E-10
   11.8800001       2.05594808E-09
   12.0000000       3.65691588E-09
   12.1199999       5.23735055E-09
   12.2399998       6.58785604E-09
   12.3599997       7.47329487E-09
   12.4799995       7.65563346E-09
   12.6000004       6.92256519E-09
   12.7200003       5.11977305E-09
   12.8400002       2.18382112E-09
   12.9600000      -1.82804227E-09
   13.0799999      -6.71530342E-09
   13.1999998      -1.21229888E-08
   13.3199997      -1.75455881E-08
   13.4399996      -2.23489280E-08
   13.5600004      -2.58114046E-08
   13.6800003      -2.71842087E-08
   13.8000002      -2.57680046E-08
   13.9200001      -2.10014104E-08
   14.0400000      -1.25543238E-08
   14.1599998      -4.17423124E-10
   14.2799997       1.50222110E-08
   14.3999996       3.29298864E-08
   14.5200005       5.20066621E-08
   14.6400003       7.05159806E-08
   14.7600002       8.63597052E-08
   14.8800001       9.72060619E-08
   15.0000000       1.00667840E-07
   15.1199999       9.45236565E-08
   15.2399998       7.69704656E-08
   15.3599997       4.68899088E-08
   15.4799995       4.10703027E-09
   15.6000004      -5.03834130E-08
   15.7200003      -1.14249580E-07
   15.8400002      -1.83740099E-07
   15.9600000      -2.53710255E-07
   16.0799999      -3.17775203E-07
   16.2000008      -3.68601917E-07
   16.3199997      -3.98341939E-07
   16.4400005      -3.99196580E-07
   16.5599995      -3.64094404E-07
   16.6800003      -2.87449467E-07
   16.7999992      -1.65956720E-07
   16.9200001       6.26142027E-10
   17.0400009       2.08769947E-07
   17.1599998       4.50599799E-07
   17.2800007       7.13515590E-07
   17.3999996       9.80062737E-07
   17.5200005       1.22809797E-06
   17.6399994       1.43128102E-06
   17.7600002       1.55990290E-06
   17.8799992       1.58204557E-06
   18.0000000       1.46503817E-06
   18.1200008       1.17715820E-06
   18.2399998       6.89502713E-07
   18.3600006      -2.20635190E-08
   18.4799995      -9.74990598E-07
   18.6000004      -2.17826801E-06
   18.7199993      -3.63090930E-06
   18.8400002      -5.32080048E-06
   18.9599991      -7.22401501E-06
   19.0799999      -9.30466013E-06
   19.2000008      -1.15153098E-05
   19.3199997      -1.37980396E-05
   19.4400005      -1.60860418E-05
   19.5599995      -1.83057819E-05
   19.6800003      -2.03796099E-05
   19.7999992      -2.22287144E-05
   19.9200001      -2.37762779E-05
   20.0400009      -2.49507248E-05
   20.1599998      -2.56888361E-05
   20.2800007      -2.59386525E-05
   20.3999996      -2.56619660E-05
   20.5200005      -2.48362940E-05
   20.6399994      -2.34562449E-05
   20.7600002      -2.15341752E-05
   20.8799992      -1.91001509E-05
   21.0000000      -1.62011675E-05
   21.1200008      -1.28996789E-05
   21.2399998      -9.27152632E-06
   21.3600006      -5.40333758E-06
   21.4799995      -1.38952907E-06
   21.6000004       2.67095902E-06
   21.7199993       6.67804352E-06
   21.8400002       1.05338577E-05
   21.9599991       1.41459568E-05
   22.0799999       1.74302331E-05
   22.2000008       2.03134623E-05
   22.3199997       2.27353703E-05
   22.4400005       2.46501822E-05
   22.5599995       2.60276338E-05
   22.6800003       2.68534004E-05
   22.7999992       2.71289991E-05
   22.9200001       2.68711829E-05
   23.0400009       2.61108635E-05
   23.1599998       2.48916531E-05
   23.2800007       2.32680704E-05
   23.3999996       2.13035019E-05
   23.5200005       1.90679784E-05
   23.6399994       1.66358550E-05
   23.7600002       1.40834663E-05
   23.8799992       1.14867917E-05
   24.0000000       8.91924719E-06
   24.1200008       6.44960892E-06
   24.2399998       4.14013630E-06
   24.3600006       2.04495109E-06
   24.4799995       2.08695027E-07
   24.6000004      -1.33449385E-06
   24.7199993      -2.56166072E-06
   24.8400002      -3.46135221E-06
   24.9599991      -4.03356444E-06
   25.0799999      -4.28932253E-06
   25.2000008      -4.24990139E-06
   25.3199997      -3.94571316E-06
   25.4400005      -3.41489795E-06
   25.5599995      -2.70166538E-06
   25.6800003      -1.85444139E-06
   25.7999992      -9.23892856E-07
   25.9200001       3.90994934E-08
   26.0400009       9.85437509E-07
   26.1599998       1.86969521E-06
   26.2800007       2.65182075E-06
   26.3999996       3.29858608E-06
   26.5200005       3.78471736E-06
   26.6399994       4.09366567E-06
   26.7600002       4.21797995E-06
   26.8799992       4.15927889E-06
   27.0000000       3.92781658E-06
   27.1200008       3.54167059E-06
   27.2399998       3.02559988E-06
   27.3600006       2.40962140E-06
   27.4799995       1.72738339E-06
   27.6000004       1.01440867E-06
   27.7199993       3.06304230E-07
   27.8400002      -3.62983513E-07
   27.9599991      -9.62778927E-07
   28.0799999      -1.46707703E-06
   28.2000008      -1.85566682E-06
   28.3199997      -2.11493079E-06
   28.4400005      -2.23828511E-06
   28.5599995      -2.22625226E-06
   28.6800003      -2.08616757E-06
   28.7999992      -1.83154975E-06
   28.9200001      -1.48117613E-06
   29.0400009      -1.05791946E-06
   29.1599998      -5.87416366E-07
   29.2800007      -9.66391340E-08
   29.3999996       3.87547345E-07
   29.5200005       8.39769825E-07
   29.6399994       1.23739994E-06
   29.7600002       1.56161514E-06
   29.8799992       1.79822030E-06
   30.0000000       1.93819437E-06
   30.1200008       1.97794566E-06
   30.2399998       1.91927575E-06
   30.3600006       1.76906497E-06
   30.4799995       1.53870633E-06
   30.6000004       1.24333133E-06
   30.7199993       9.00874852E-07
   30.8400002       5.31032640E-07
   30.9599991       1.54170408E-07
   31.0799999      -2.09758099E-07
   31.2000008      -5.42230055E-07
   31.3199997      -8.27061172E-07
   31.4400005      -1.05116226E-06
   31.5599995      -1.20511299E-06
   31.6800003      -1.28353429E-06
   31.7999992      -1.28524823E-06
   31.9200001      -1.21322944E-06
   32.0400009      -1.07435619E-06
   32.1599998      -8.78981609E-07
   32.2799988      -6.40351345E-07
   32.4000015      -3.73898075E-07
   32.5200005      -9.64501226E-08
   32.6399994       1.74610449E-07
   32.7599983       4.22200657E-07
   32.8800011       6.30363502E-07
   33.0000000       7.85033535E-07
   33.1199989       8.74709656E-07
   33.2400017       8.91007346E-07
   33.3600006       8.29068199E-07
   33.4799995       6.87810314E-07
   33.5999985       4.70009297E-07
   33.7200012       1.82204474E-07
   33.8400002      -1.65564643E-07
   33.9599991      -5.60183651E-07
   34.0800018      -9.86033569E-07
   34.2000008      -1.42568285E-06
   34.3199997      -1.86067246E-06
   34.4399986      -2.27235887E-06
   34.5600014      -2.64277946E-06
   34.6800003      -2.95549626E-06
   34.7999992      -3.19637979E-06
   34.9199982      -3.35429581E-06
   35.0400009      -3.42165163E-06
   35.1599998      -3.39477970E-06
   35.2799988      -3.27413045E-06
   35.4000015      -3.06426364E-06
   35.5200005      -2.77362847E-06
   35.6399994      -2.41414887E-06
   35.7599983      -2.00062163E-06
   35.8800011      -1.54996883E-06
   36.0000000      -1.08037318E-06
   36.1199989      -6.10352117E-07
   36.2400017      -1.57819116E-07
   36.3600006       2.60812470E-07
   36.4799995       6.31427952E-07
   36.5999985       9.42864517E-07
   36.7200012       1.18737739E-06
   36.8400002       1.36089204E-06
   36.9599991       1.46302386E-06
   37.0800018       1.49686991E-06
   37.2000008       1.46858531E-06
   37.3199997       1.38678013E-06
   37.4399986       1.26178008E-06
   37.5600014       1.10480846E-06
   37.6800003       9.27152087E-07
   37.7999992       7.39374514E-07
   37.9199982       5.50638390E-07
   38.0400009       3.68187301E-07
   38.1599998       1.97025471E-07
   38.2799988       3.98172553E-08
   38.4000015      -1.02991926E-07
   38.5200005      -2.32850795E-07
   38.6399994      -3.52608737E-07
   38.7599983      -4.65904805E-07
   38.8800011      -5.76500895E-07
   39.0000000      -6.87625459E-07
   39.1199989      -8.01393242E-07
   39.2400017      -9.18359433E-07
   39.3600006      -1.03725267E-06
   39.4799995      -1.15491446E-06
   39.5999985      -1.26645261E-06
   39.7200012      -1.36559322E-06
   39.8400002      -1.44519970E-06
   39.9599991      -1.49790571E-06
   40.0800018      -1.51680160E-06
   40.2000008      -1.49610469E-06
   40.3199997      -1.43174918E-06
   40.4399986      -1.32183391E-06
   40.5600014      -1.16688682E-06
   40.6800003      -9.69918005E-07
   40.7999992      -7.36257107E-07
   40.9199982      -4.73193921E-07
   41.0400009      -1.89457054E-07
   41.1599998       1.05414472E-07
   41.2799988       4.01744643E-07
   41.4000015       6.90370825E-07
   41.5200005       9.63207071E-07
   41.6399994       1.21366679E-06
   41.7599983       1.43690659E-06
   41.8800011       1.62987135E-06
   42.0000000       1.79114534E-06
   42.1199989       1.92063430E-06
   42.2400017       2.01911939E-06
   42.3600006       2.08774782E-06
   42.4799995       2.12751820E-06
   42.5999985       2.13883641E-06
   42.7200012       2.12119789E-06
   42.8400002       2.07304424E-06
   42.9599991       1.99182273E-06
   43.0800018       1.87425348E-06
   43.2000008       1.71678300E-06
   43.3199997       1.51618690E-06
   43.4399986       1.27025316E-06
   43.5600014       9.78478056E-07
   43.6800003       6.42690509E-07
   43.7999992       2.67528549E-07
   43.9199982      -1.39299885E-07
   44.0400009      -5.67020493E-07
   44.1599998      -1.00208513E-06
   44.2799988      -1.42875137E-06
   44.4000015      -1.82991698E-06
   44.5200005      -2.18815194E-06
   44.6399994      -2.48684933E-06
   44.7599983      -2.71139720E-06
   44.8800011      -2.85027409E-06
   45.0000000      -2.89596846E-06
   45.1199989      -2.84563612E-06
   45.2400017      -2.70143323E-06
   45.3600006      -2.47048433E-06
   45.4799995      -2.16448075E-06
   45.5999985      -1.79893539E-06
   45.7200012      -1.39214694E-06
   45.8400002      -9.63956722E-07
   45.9599991      -5.34395497E-07
   46.0800018      -1.22330363E-07
   46.2000008       2.55779923E-07
   46.3199997       5.86919896E-07
   46.4399986       8.62260606E-07
   46.5600014       1.07755250E-06
   46.6800003       1.23313941E-06
   46.7999992       1.33359777E-06
   46.9199982       1.38703444E-06
   47.0400009       1.40410782E-06
   47.1599998       1.39685812E-06
   47.2799988       1.37744746E-06
   47.4000015       1.35692176E-06
   47.5200005       1.34409902E-06
   47.6399994       1.34468132E-06
   47.7599983       1.36067001E-06
   47.8800011       1.39013480E-06
   48.0000000       1.42736235E-06
   48.1199989       1.46337413E-06
   48.2400017       1.48677600E-06
   48.3600006       1.48486924E-06
   48.4799995       1.44493345E-06
   48.5999985       1.35556957E-06
   48.7200012       1.20799075E-06
   48.8400002       9.97141910E-07
   48.9599991       7.22548293E-07
   49.0800018       3.88807990E-07
   49.2000008       5.67362868E-09
   49.3199997      -4.12298505E-07
   49.4399986      -8.46518901E-07
   49.5600014      -1.27550391E-06
   49.6800003      -1.67630276E-06
   49.7999992      -2.02610363E-06
   49.9199982      -2.30389173E-06
   50.0400009      -2.49202685E-06
   50.1599998      -2.57760939E-06
   50.2799988      -2.55352165E-06
   50.4000015      -2.41905332E-06
   50.5200005      -2.18005607E-06
   50.6399994      -1.84861221E-06
   50.7599983      -1.44223532E-06
   50.8800011      -9.82675374E-07
   51.0000000      -4.94414905E-07
   51.1199989      -2.98629166E-09
   51.2400017       4.66757797E-07
   51.3600006       8.92278877E-07
   51.4799995       1.25476254E-06
   51.5999985       1.54019619E-06
   51.7200012       1.74003617E-06
   51.8400002       1.85142494E-06
   51.9599991       1.87695639E-06
   52.0800018       1.82403210E-06
   52.2000008       1.70388057E-06
   52.3199997       1.53034330E-06
   52.4399986       1.31854608E-06
   52.5600014       1.08358040E-06
   52.6800003       8.39314339E-07
   52.7999992       5.97433143E-07
   52.9199982       3.66786367E-07
   53.0400009       1.53084059E-07
   53.1599998      -4.10506189E-08
   53.2799988      -2.15699416E-07
   53.4000015      -3.72996737E-07
   53.5200005      -5.16291891E-07
   53.6399994      -6.49224887E-07
   53.7599983      -7.74822638E-07
   53.8800011      -8.94716720E-07
   54.0000000      -1.00856880E-06
   54.1199989      -1.11376880E-06
   54.2400017      -1.20544041E-06
   54.3600006      -1.27675924E-06
   54.4799995      -1.31955574E-06
   54.5999985      -1.32514629E-06
   54.7200012      -1.28531497E-06
   54.8400002      -1.19335027E-06
   54.9599991      -1.04503442E-06
   55.0800018      -8.39487768E-07
   55.2000008      -5.79777634E-07
   55.3199997      -2.73224373E-07
   55.4399986       6.86397001E-08
   55.5600014       4.30473165E-07
   55.6800003       7.93874221E-07
   55.7999992       1.13843078E-06
   55.9199982       1.44300236E-06
   56.0400009       1.68714530E-06
   56.1599998       1.85257784E-06
   56.2799988       1.92458106E-06
   56.4000015       1.89322918E-06
   56.5200005       1.75435707E-06
   56.6399994       1.51018730E-06
   56.7599983       1.16955948E-06
   56.8800011       7.47732656E-07
   57.0000000       2.65755460E-07
   57.1199989      -2.50570366E-07
   57.2400017      -7.72082558E-07
   57.3600006      -1.26793168E-06
   57.4799995      -1.70743874E-06
   57.5999985      -2.06202822E-06
   57.7200012      -2.30711385E-06
   57.8400002      -2.42381634E-06
   57.9599991      -2.40039344E-06
   58.0800018      -2.23328107E-06
   58.2000008      -1.92765424E-06
   58.3199997      -1.49745586E-06
   58.4399986      -9.64861215E-07
   58.5600014      -3.59192569E-07
   58.6800003       2.84669966E-07
   58.7999992       9.28296458E-07
   58.9199982       1.53201597E-06
   59.0400009       2.05738252E-06
   59.1599998       2.46963691E-06
   59.2799988       2.73999763E-06
   59.4000015       2.84761973E-06
   59.5200005       2.78107859E-06
   59.6399994       2.53926692E-06
   59.7599983       2.13162980E-06
   59.8800011       1.57771217E-06
   60.0000000       9.06038679E-07
   60.1199989       1.52400943E-07
   60.2400017      -6.42336204E-07
   60.3600006      -1.43475506E-06
   60.4799995      -2.18155719E-06
   60.5999985      -2.84220141E-06
   60.7200012      -3.38132190E-06
   60.8400002      -3.77076822E-06
   60.9599991      -3.99112832E-06
   61.0800018      -4.03264949E-06
   61.2000008      -3.89550769E-06
   61.3199997      -3.58944021E-06
   61.4399986      -3.13278974E-06
   61.5600014      -2.55106374E-06
   61.6800003      -1.87513035E-06
   61.7999992      -1.13920294E-06
   61.9199982      -3.78764156E-07
   62.0400009       3.71424392E-07
   62.1599998       1.07910307E-06
   62.2799988       1.71598833E-06
   62.4000015       2.25888039E-06
   62.5200005       2.69037628E-06
   62.6399994       2.99919725E-06
   62.7599983       3.18016782E-06
   62.8800011       3.23390054E-06
   63.0000000       3.16625324E-06
   63.1199989       2.98762939E-06
   63.2400017       2.71218187E-06
   63.3600006       2.35697598E-06
   63.4799995       1.94113977E-06
   63.5999985       1.48503386E-06
   63.7200012       1.00944453E-06
   63.8400002       5.34802098E-07
   63.9599991       8.04289542E-08
   64.0800018      -3.36181699E-07
   64.1999969      -7.00043415E-07
   64.3199997      -9.99288204E-07
   64.4400024      -1.22567849E-06
   64.5599976      -1.37497841E-06
   64.6800003      -1.44714079E-06
   64.8000031      -1.44626824E-06
   64.9199982      -1.38031930E-06
   65.0400009      -1.26054840E-06
   65.1600037      -1.10069061E-06
   65.2799988      -9.15931253E-07
   65.4000015      -7.21723325E-07
   65.5199966      -5.32542856E-07
   65.6399994      -3.60683913E-07
   65.7600021      -2.15205375E-07
   65.8799973      -1.01134994E-07
   66.0000000      -1.90207015E-08
   66.1200027       3.51074156E-08
   66.2399979       6.93374176E-08
   66.3600006       9.50517745E-08
   66.4800034       1.25735241E-07
   66.5999985       1.75509854E-07
   66.7200012       2.57524306E-07
   66.8399963       3.82345803E-07
   66.9599991       5.56510258E-07
   67.0800018       7.81377935E-07
   67.1999969       1.05242066E-06
   67.3199997       1.35903008E-06
   67.4400024       1.68489089E-06
   67.5599976       2.00891304E-06
   67.6800003       2.30666410E-06
   67.8000031       2.55219311E-06
   67.9199982       2.72010197E-06
   68.0400009       2.78769062E-06
   68.1600037       2.73699720E-06
   68.2799988       2.55654754E-06
   68.4000015       2.24266773E-06
   68.5199966       1.80023790E-06
   68.6399994       1.24280746E-06
   68.7600021       5.92059678E-07
   68.8799973      -1.23346553E-07
   69.0000000      -8.69473411E-07
   69.1200027      -1.60921400E-06
   69.2399979      -2.30465776E-06
   69.3600006      -2.91953666E-06
   69.4800034      -3.42157000E-06
   69.5999985      -3.78454251E-06
   69.7200012      -3.98996690E-06
   69.8399963      -4.02821524E-06
   69.9599991      -3.89905108E-06
   70.0800018      -3.61152911E-06
   70.1999969      -3.18327966E-06
   70.3199997      -2.63923903E-06
   70.4400024      -2.00992145E-06
   70.5599976      -1.32936214E-06
   70.6800003      -6.32878368E-07
   70.8000031       4.51889690E-08
   70.9199982       6.73595082E-07
   71.0400009       1.22602341E-06
   71.1600037       1.68250403E-06
   71.2799988       2.03032414E-06
   71.4000015       2.26437396E-06
   71.5199966       2.38691860E-06
   71.6399994       2.40682652E-06
   71.7600021       2.33833157E-06
   71.8799973       2.19944377E-06
   72.0000000       2.01014836E-06
   72.1200027       1.79055280E-06
   72.2399979       1.55914313E-06
   72.3600006       1.33130118E-06
   72.4800034       1.11820827E-06
   72.5999985       9.26225539E-07
   72.7200012       7.56797078E-07