  -30.0000000       0.00000000    
  -29.8799992       0.00000000    
  -29.7600002       0.00000000    
  -29.6399994       0.00000000    
  -29.5200005       0.00000000    
  -29.3999996       0.00000000    
  -29.2800007       0.00000000    
  -29.1599998       0.00000000    
  -29.0400009       0.00000000    
  -28.9200001       0.00000000    
  -28.7999992      -0.00000000    
  -28.6800003      -8.12753109E-44
  -28.5599995      -2.88667484E-43
  -28.4400005       1.77516489E-41
  -28.3199997       2.71224120E-40
  -28.2000008       2.02635745E-39
  -28.0799999       9.83786211E-39
  -27.9599991       3.37267653E-38
  -27.8400002       8.24134231E-38
  -27.7199993       1.30678694E-37
  -27.6000004       5.45565625E-38
  -27.4799995      -4.48950065E-37
  -27.3600006      -2.06561887E-36
  -27.2399998      -6.93701518E-36
  -27.1200008      -2.24492301E-35
  -27.0000000      -6.87731637E-35
  -26.8799992      -1.81841365E-34
  -26.7600002      -3.78423521E-34
  -26.6399994      -5.19716955E-34
  -26.5200005      -3.36330974E-35
  -26.3999996       2.34867077E-33
  -26.2800007       8.23417703E-33
  -26.1599998       1.74766916E-32
  -26.0400009       2.35209484E-32
  -25.9200001       7.83694516E-33
  -25.7999992      -5.93188069E-32
  -25.6800003      -1.98201254E-31
  -25.5599995      -3.66606901E-31
  -25.4400005      -3.85247749E-31
  -25.3199997       9.38309566E-32
  -25.2000008       1.44292383E-30
  -25.0799999       3.59173070E-30
  -24.9599991       5.25022233E-30
  -24.8400002       3.26582912E-30
  -24.7199993      -6.81278308E-30
  -24.6000004      -2.75202269E-29
  -24.4799995      -5.29210220E-29
  -24.3600006      -6.08571233E-29
  -24.2399998      -1.10235633E-29
  -24.1200008       1.39493890E-28
  -24.0000000       3.92793749E-28
  -23.8799992       6.42743682E-28
  -23.7600002       6.18678080E-28
  -23.6399994      -8.51687629E-29
  -23.5200005      -1.80081248E-27
  -23.3999996      -4.35265945E-27
  -23.2800007      -6.50985198E-27
  -23.1599998      -5.69123161E-27
  -23.0400009       1.47343906E-27
  -22.9200001       1.71441322E-26
  -22.7999992       3.88228219E-26
  -22.6800003       5.57036071E-26
  -22.5599995       4.76945611E-26
  -22.4400005      -8.99415986E-27
  -22.3199997      -1.26898914E-25
  -22.2000008      -2.84734389E-25
  -22.0799999      -4.06813966E-25
  -21.9599991      -3.62339098E-25
  -21.8400002      -5.13145891E-27
  -21.7199993       7.35779145E-25
  -21.6000004       1.73148954E-24
  -21.4799995       2.55078548E-24
  -21.3600006       2.47060961E-24
  -21.2399998       6.91275360E-25
  -21.1200008      -3.21104273E-24
  -21.0000000      -8.68923503E-24
  -20.8799992      -1.37461222E-23
  -20.7600002      -1.49542816E-23
  -20.6399994      -8.34100500E-24
  -20.5200005       8.73608232E-24
  -20.3999996       3.50664797E-23
  -20.2800007       6.33423942E-23
  -20.1599998       7.95759147E-23
  -20.0400009       6.56052764E-23
  -19.9200001       5.50735786E-24
  -19.7999992      -1.04606705E-22
  -19.6800003      -2.45840991E-22
  -19.5599995      -3.69274171E-22
  -19.4400005      -3.98159228E-22
  -19.3199997      -2.45424952E-22
  -19.2000008       1.50423367E-22
  -19.0799999       7.74416193E-22
  -18.9599991       1.48309647E-21
  -18.8400002       1.97765435E-21
  -18.7199993       1.83762677E-21
  -18.6000004       6.47496930E-22
  -18.4799995      -1.77662805E-21
  -18.3600006      -5.10524565E-21
  -18.2399998      -8.27419073E-21
  -18.1200008      -9.49982118E-21
  -18.0000000      -6.70943522E-21
  -17.8799992       1.53857452E-21
  -17.7600002       1.48022807E-20
  -17.6399994       2.96433356E-20
  -17.5200005       3.93902632E-20
  -17.3999996       3.55313009E-20
  -17.2800007       1.10728707E-20
  -17.1599998      -3.47000651E-20
  -17.0400009      -9.17954508E-20
  -16.9200001      -1.38078455E-19
  -16.7999992      -1.43480074E-19
  -16.6800003      -8.09852924E-20
  -16.5599995       5.75214483E-20
  -16.4400005       2.46239648E-19
  -16.3199997       4.19710254E-19
  -16.2000008       4.84459367E-19
  -16.0799999       3.51239836E-19
  -15.9600000      -1.81004421E-20
  -15.8400002      -5.65771480E-19
  -15.7200003      -1.11905646E-18
  -15.6000004      -1.41923483E-18
  -15.4799995      -1.20641087E-18
  -15.3599997      -3.43681680E-19
  -15.2399998       1.06295924E-18
  -15.1199999       2.60928437E-18
  -15.0000000       3.65589967E-18
  -14.8800001       3.52774457E-18
  -14.7600002       1.80923570E-18
  -14.6400003      -1.36720661E-18
  -14.5200005      -5.17629320E-18
  -14.3999996      -8.21717498E-18
  -14.2799997      -8.92998629E-18
  -14.1599998      -6.22224571E-18
  -14.0400000      -9.03053690E-20
  -13.9200001       8.04352661E-18
  -13.8000002       1.55119129E-17
  -13.6800003       1.91684896E-17
  -13.5600004       1.65618268E-17
  -13.4399996       7.11145619E-18
  -13.3199997      -7.22263671E-18
  -13.1999998      -2.21823635E-17
  -13.0799999      -3.24584481E-17
  -12.9600000      -3.36079248E-17
  -12.8400002      -2.39394523E-17
  -12.7200003      -5.53862271E-18
  -12.6000004       1.61620984E-17
  -12.4799995       3.43040965E-17
  -12.3599997       4.33554476E-17
  -12.2399998       4.15135546E-17
  -12.1199999       3.15157600E-17
  -12.0000000       1.91620773E-17
  -11.8800001       9.88617648E-18
  -11.7600002       4.84145380E-18
  -11.6400003      -1.34254205E-18
  -11.5200005      -1.92071487E-17
  -11.3999996      -5.89002889E-17
  -11.2799997      -1.21866918E-16
  -11.1599998      -1.93330214E-16
  -11.0400000      -2.40134714E-16
  -10.9200001      -2.17664028E-16
  -10.8000002      -8.65379549E-17
  -10.6800003       1.64696795E-16
  -10.5600004       4.99079701E-16
  -10.4399996       8.23432545E-16
  -10.3199997       1.00209683E-15
  -10.1999998       8.94930543E-16
  -10.0799999       4.12783746E-16
  -9.96000004      -4.26170545E-16
  -9.84000015      -1.46198226E-15
  -9.72000027      -2.40167531E-15
  -9.60000038      -2.88194681E-15
  -9.47999954      -2.57846019E-15
  -9.35999966      -1.33406969E-15
  -9.23999977       7.36572016E-16
  -9.11999989       3.21066441E-15
  -9.00000000       5.41919440E-15
  -8.88000011       6.60779127E-15
  -8.76000023       6.16136636E-15
  -8.64000034       3.82786344E-15
  -8.52000046      -1.34326733E-16
  -8.39999962      -4.94562294E-15
  -8.27999973      -9.45255989E-15
  -8.15999985      -1.24036574E-14
  -8.03999996      -1.27795867E-14
  -7.92000008      -1.00822196E-14
  -7.80000019      -4.49874826E-15
  -7.67999983       3.10205912E-15
  -7.55999994       1.13305260E-14
  -7.44000006       1.85378886E-14
  -7.32000017       2.31061237E-14
  -7.19999981       2.37080812E-14
  -7.07999992       1.95170706E-14
  -6.96000004       1.03797289E-14
  -6.84000015      -3.02615925E-15
  -6.71999979      -1.90572452E-14
  -6.59999990      -3.50588597E-14
  -6.48000002      -4.75237322E-14
  -6.36000013      -5.25741424E-14
  -6.23999977      -4.68128344E-14
  -6.11999989      -2.84411099E-14
  -6.00000000       1.63315279E-15
  -5.88000011       3.91047566E-14
  -5.76000023       7.64100765E-14
  -5.63999987       1.03942659E-13
  -5.51999998       1.12274231E-13
  -5.40000010       9.49242380E-14
  -5.28000021       5.09058738E-14
  -5.15999985      -1.38296518E-14
  -5.03999996      -8.67409443E-14
  -4.92000008      -1.51057633E-13
  -4.80000019      -1.89748431E-13
  -4.67999983      -1.90105120E-13
  -4.55999994      -1.47624331E-13
  -4.44000006      -6.79479395E-14
  -4.32000017       3.38762831E-14
  -4.19999981       1.36761547E-13
  -4.07999992       2.18695003E-13
  -3.96000004       2.62132357E-13
  -3.83999991       2.58091156E-13
  -3.72000003       2.07771070E-13
  -3.59999990       1.21347539E-13
  -3.48000002       1.45329509E-14
  -3.35999990      -9.57664463E-14
  -3.24000001      -1.95126535E-13
  -3.11999989      -2.73401798E-13
  -3.00000000      -3.24272429E-13
  -2.88000011      -3.43183625E-13
  -2.75999999      -3.25097154E-13
  -2.64000010      -2.63669051E-13
  -2.51999998      -1.52943210E-13
  -2.40000010       8.46118660E-15
  -2.27999997       2.11987952E-13
  -2.16000009       4.34895013E-13
  -2.03999996       6.39582896E-13
  -1.91999996       7.78153800E-13
  -1.79999995       8.02218968E-13
  -1.67999995       6.76019462E-13
  -1.55999994       3.89351691E-13
  -1.44000006      -3.37787049E-14
  -1.32000005      -5.34089266E-13
  -1.20000005      -1.02490878E-12
  -1.08000004      -1.40783858E-12
 -0.959999979      -1.59269559E-12
 -0.839999974      -1.51695475E-12
 -0.720000029      -1.16007844E-12
 -0.600000024      -5.49673154E-13
 -0.479999989       2.41267482E-13
 -0.360000014       1.10453042E-12
 -0.239999995       1.91140528E-12
 -0.119999997       2.52901714E-12
  -1.11022302E-15   2.83633837E-12
  0.119999997       2.73935193E-12
  0.239999995       2.18577803E-12
  0.360000014       1.17953271E-12
  0.479999989      -2.06426740E-13
  0.600000024      -1.82242437E-12
  0.720000029      -3.44488348E-12
  0.839999974      -4.79502679E-12
  0.959999979      -5.57641433E-12
   1.08000004      -5.52935128E-12
   1.20000005      -4.49394818E-12
   1.32000005      -2.46801863E-12
   1.44000006       3.56833432E-13
   1.55999994       3.59578296E-12
   1.67999995       6.71612505E-12
   1.79999995       9.12483977E-12
   1.91999996       1.02838866E-11
   2.03999996       9.82899179E-12
   2.16000009       7.66338902E-12
   2.27999997       4.00113926E-12
   2.40000010      -6.54718630E-13
   2.51999998      -5.59819205E-12
   2.64000010      -1.00528344E-11
   2.75999999      -1.33201662E-11
   2.88000011      -1.49084824E-11
   3.00000000      -1.46113954E-11
   3.11999989      -1.25190804E-11
   3.24000001      -8.96396499E-12
   3.35999990      -4.42068170E-12
   3.48000002       6.07867381E-13
   3.59999990       5.68444250E-12
   3.72000003       1.04861163E-11
   3.83999991       1.47987369E-11
   3.96000004       1.84669936E-11
   4.07999992       2.13244648E-11
   4.19999981       2.31338664E-11
   4.32000017       2.35626397E-11
   4.44000006       2.22055915E-11
   4.55999994       1.86492887E-11
   4.67999983       1.25592661E-11
   4.80000019       3.76545713E-12
   4.92000008      -7.67399078E-12
   5.03999996      -2.14379625E-11
   5.15999985      -3.69291819E-11
   5.28000021      -5.32649862E-11
   5.40000010      -6.92535265E-11
   5.51999998      -8.33473984E-11
   5.63999987      -9.35842723E-11
   5.76000023      -9.75424116E-11
   5.88000011      -9.23495863E-11
   6.00000000      -7.47803972E-11
   6.11999989      -4.14591625E-11
   6.23999977       1.08435014E-11
   6.36000013       8.48630055E-11
   6.48000002       1.82506274E-10
   6.59999990       3.04601067E-10
   6.71999979       4.50785520E-10
   6.84000015       6.19565954E-10
   6.96000004       8.08534462E-10
   7.07999992       1.01470565E-09
   7.19999981       1.23491284E-09
   7.32000017       1.46620149E-09
   7.44000006       1.70616943E-09
   7.55999994       1.95322247E-09
   7.67999983       2.20673724E-09
   7.80000019       2.46713028E-09
   7.92000008       2.73583822E-09
   8.03999996       3.01521275E-09
   8.15999985       3.30832806E-09
   8.27999973       3.61870423E-09
   8.39999962       3.94996924E-09
   8.52000046       4.30549907E-09
   8.64000034       4.68810502E-09
   8.76000023       5.09983478E-09
   8.88000011       5.54195756E-09
   9.00000000       6.01516881E-09
   9.11999989       6.51998500E-09
   9.23999977       7.05727121E-09
   9.35999966       7.62877495E-09
   9.47999954       8.23754309E-09
   9.60000038       8.88812668E-09
   9.72000027       9.58649071E-09
   9.84000015       1.03396696E-08
   9.96000004       1.11552216E-08
   10.0799999       1.20406272E-08
   10.1999998       1.30027322E-08
   10.3199997       1.40473846E-08
   10.4399996       1.51792872E-08
   10.5600004       1.64020868E-08
   10.6800003       1.77186443E-08
   10.8000002       1.91314058E-08
   10.9200001       2.06427995E-08
   11.0400000       2.22556071E-08
   11.1599998       2.39732962E-08
   11.2799997       2.58002721E-08
   11.3999996       2.77421215E-08
   11.5200005       2.98058040E-08
   11.6400003       3.19997788E-08
   11.7600002       3.43340503E-08
   11.8800001       3.68200759E-08
   12.0000000       3.94705175E-08
   12.1199999       4.22988755E-08
   12.2399998       4.53190836E-08
   12.3599997       4.85451608E-08
   12.4799995       5.19910088E-08
   12.6000004       5.56704975E-08
   12.7200003       5.95977845E-08
   12.8400002       6.37878443E-08
   12.9600000       6.82570445E-08
   13.0799999       7.30236351E-08
   13.1999998       7.81079947E-08
   13.3199997       8.35324556E-08
   13.4399996       8.93208707E-08
   13.5600004       9.54979029E-08
   13.6800003       1.02088229E-07
   13.8000002       1.09115945E-07
   13.9200001       1.16604141E-07
   14.0400000       1.24575010E-07
   14.1599998       1.33050193E-07
   14.2799997       1.42051405E-07
   14.3999996       1.51601228E-07
   14.5200005       1.61723804E-07
   14.6400003       1.72445425E-07
   14.7600002       1.83794896E-07
   14.8800001       1.95803722E-07
   15.0000000       2.08506265E-07
   15.1199999       2.21939715E-07
   15.2399998       2.36144103E-07
   15.3599997       2.51162191E-07
   15.4799995       2.67039439E-07
   15.6000004       2.83823539E-07
   15.7200003       3.01564228E-07
   15.8400002       3.20312722E-07
   15.9600000       3.40121261E-07
   16.0799999       3.61042822E-07
   16.2000008       3.83131010E-07
   16.3199997       4.06439938E-07
   16.4400005       4.31024802E-07
   16.5599995       4.56941819E-07
   16.6800003       4.84248858E-07
   16.7999992       5.13005602E-07
   16.9200001       5.43273757E-07
   17.0400009       5.75117497E-07
   17.1599998       6.08603784E-07
   17.2800007       6.43803105E-07
   17.3999996       6.80789753E-07
   17.5200005       7.19642969E-07
   17.6399994       7.60446824E-07
   17.7600002       8.03290163E-07
   17.8799992       8.48265927E-07
   18.0000000       8.95469896E-07
   18.1200008       9.44998817E-07
   18.2399998       9.96949439E-07
   18.3600006       1.05141771E-06
   18.4799995       1.10849840E-06
   18.6000004       1.16828676E-06
   18.7199993       1.23087966E-06
   18.8400002       1.29637715E-06
   18.9599991       1.36488404E-06
   19.0799999       1.43651073E-06
   19.2000008       1.51137249E-06
   19.3199997       1.58958881E-06
   19.4400005       1.67128212E-06
   19.5599995       1.75657681E-06
   19.6800003       1.84559804E-06
   19.7999992       1.93847359E-06
   19.9200001       2.03533273E-06
   20.0400009       2.13630960E-06
   20.1599998       2.24154041E-06
   20.2800007       2.35116568E-06
   20.3999996       2.46532932E-06
   20.5200005       2.58417504E-06
   20.6399994       2.70784790E-06
   20.7600002       2.83649229E-06
   20.8799992       2.97025235E-06
   21.0000000       3.10927157E-06
   21.1200008       3.25369570E-06
   21.2399998       3.40367183E-06
   21.3600006       3.55934867E-06
   21.4799995       3.72087629E-06
   21.6000004       3.88840590E-06
   21.7199993       4.06208528E-06
   21.8400002       4.24206337E-06
   21.9599991       4.42848659E-06
   22.0799999       4.62150410E-06
   22.2000008       4.82126825E-06
   22.3199997       5.02793500E-06
   22.4400005       5.24166899E-06
   22.5599995       5.46263482E-06
   22.6800003       5.69100303E-06
   22.7999992       5.92693596E-06
   22.9200001       6.17059140E-06
   23.0400009       6.42211671E-06
   23.1599998       6.68164785E-06
   23.2800007       6.94931259E-06
   23.3999996       7.22523464E-06
   23.5200005       7.50953632E-06
   23.6399994       7.80234132E-06
   23.7600002       8.10377878E-06
   23.8799992       8.41397741E-06
   24.0000000       8.73306726E-06
   24.1200008       9.06117111E-06
   24.2399998       9.39840356E-06
   24.3600006       9.74486738E-06
   24.4799995       1.01006563E-05
   24.6000004       1.04658557E-05
   24.7199993       1.08405475E-05
   24.8400002       1.12248081E-05
   24.9599991       1.16187130E-05
   25.0799999       1.20223358E-05
   25.2000008       1.24357412E-05
   25.3199997       1.28589854E-05
   25.4400005       1.32921095E-05
   25.5599995       1.37351408E-05
   25.6800003       1.41880919E-05
   25.7999992       1.46509601E-05
   25.9200001       1.51237364E-05
   26.0400009       1.56064052E-05
   26.1599998       1.60989439E-05
   26.2800007       1.66013215E-05
   26.3999996       1.71135034E-05
   26.5200005       1.76354370E-05
   26.6399994       1.81670530E-05
   26.7600002       1.87082751E-05
   26.8799992       1.92590032E-05
   27.0000000       1.98191265E-05
   27.1200008       2.03885120E-05
   27.2399998       2.09670252E-05
   27.3600006       2.15545151E-05
   27.4799995       2.21508217E-05
   27.6000004       2.27557666E-05
   27.7199993       2.33691553E-05
   27.8400002       2.39907695E-05
   27.9599991       2.46203836E-05
   28.0799999       2.52577465E-05
   28.2000008       2.59025910E-05
   28.3199997       2.65546460E-05
   28.4400005       2.72136240E-05
   28.5599995       2.78792249E-05
   28.6800003       2.85511323E-05
   28.7999992       2.92290224E-05
   28.9200001       2.99125422E-05
   29.0400009       3.06013171E-05
   29.1599998       3.12949742E-05
   29.2800007       3.19931096E-05
   29.3999996       3.26953123E-05
   29.5200005       3.34011675E-05
   29.6399994       3.41102386E-05
   29.7600002       3.48220856E-05
   29.8799992       3.55362499E-05
   30.0000000       3.62522442E-05
   30.1200008       3.69695554E-05
   30.2399998       3.76876451E-05
   30.3600006       3.84059531E-05
   30.4799995       3.91239082E-05
   30.6000004       3.98409247E-05
   30.7199993       4.05564242E-05
   30.8400002       4.12698173E-05
   30.9599991       4.19805292E-05
   31.0799999       4.26879669E-05
   31.2000008       4.33915375E-05
   31.3199997       4.40906369E-05
   31.4400005       4.47846287E-05
   31.5599995       4.54728688E-05
   31.6800003       4.61547061E-05
   31.7999992       4.68294711E-05
   31.9200001       4.74964945E-05
   32.0400009       4.81551106E-05
   32.1599998       4.88046462E-05
   32.2799988       4.94444175E-05
   32.4000015       5.00737297E-05
   32.5200005       5.06918732E-05
   32.6399994       5.12981533E-05
   32.7599983       5.18918314E-05
   32.8800011       5.24721872E-05
   33.0000000       5.30384932E-05
   33.1199989       5.35900290E-05
   33.2400017       5.41260742E-05
   33.3600006       5.46459269E-05
   33.4799995       5.51488884E-05
   33.5999985       5.56342784E-05
   33.7200012       5.61014058E-05
   33.8400002       5.65495902E-05
   33.9599991       5.69781550E-05
   34.0800018       5.73864127E-05
   34.2000008       5.77736828E-05
   34.3199997       5.81392924E-05
   34.4399986       5.84825684E-05
   34.5600014       5.88028634E-05
   34.6800003       5.90995405E-05
   34.7999992       5.93719706E-05
   34.9199982       5.96195605E-05
   35.0400009       5.98417282E-05
   35.1599998       6.00379171E-05
   35.2799988       6.02075634E-05
   35.4000015       6.03501430E-05
   35.5200005       6.04651214E-05
   35.6399994       6.05519817E-05
   35.7599983       6.06102039E-05
   35.8800011       6.06393005E-05
   36.0000000       6.06387803E-05
   36.1199989       6.06081703E-05
   36.2400017       6.05470341E-05
   36.3600006       6.04549423E-05
   36.4799995       6.03315020E-05
   36.5999985       6.01763313E-05
   36.7200012       5.99890991E-05
   36.8400002       5.97694889E-05
   36.9599991       5.95172169E-05
   37.0800018       5.92320321E-05
   37.2000008       5.89137053E-05
   37.3199997       5.85620255E-05
   37.4399986       5.81768145E-05
   37.5600014       5.77578976E-05
   37.6800003       5.73051402E-05
   37.7999992       5.68184332E-05
   37.9199982       5.62976784E-05
   38.0400009       5.57428284E-05
   38.1599998       5.51538360E-05
   38.2799988       5.45306975E-05
   38.4000015       5.38734275E-05
   38.5200005       5.31820588E-05
   38.6399994       5.24566422E-05
   38.7599983       5.16972577E-05
   38.8800011       5.09040219E-05
   39.0000000       5.00770766E-05
   39.1199989       4.92166146E-05
   39.2400017       4.83228578E-05
   39.3600006       4.73960608E-05
   39.4799995       4.64365075E-05
   39.5999985       4.54444998E-05
   39.7200012       4.44203579E-05
   39.8400002       4.33644127E-05
   39.9599991       4.22770172E-05
   40.0800018       4.11585570E-05
   40.2000008       4.00094395E-05
   40.3199997       3.88301160E-05
   40.4399986       3.76210519E-05
   40.5600014       3.63827530E-05
   40.6800003       3.51157614E-05
   40.7999992       3.38206155E-05
   40.9199982       3.24978828E-05
   41.0400009       3.11481563E-05
   41.1599998       2.97720453E-05
   41.2799988       2.83701866E-05
   41.4000015       2.69432476E-05
   41.5200005       2.54919214E-05
   41.6399994       2.40169247E-05
   41.7599983       2.25189924E-05
   41.8800011       2.09988739E-05
   42.0000000       1.94573331E-05
   42.1199989       1.78951468E-05
   42.2400017       1.63131135E-05
   42.3600006       1.47120481E-05
   42.4799995       1.30927911E-05
   42.5999985       1.14561981E-05
   42.7200012       9.80313780E-06
   42.8400002       8.13448696E-06
   42.9599991       6.45112505E-06
   43.0800018       4.75393790E-06
   43.2000008       3.04381751E-06
   43.3199997       1.32167133E-06
   43.4399986      -4.11574945E-07
   43.5600014      -2.15497448E-06
   43.6800003      -3.90756304E-06
   43.7999992      -5.66836343E-06
   43.9199982      -7.43640021E-06
   44.0400009      -9.21070568E-06
   44.1599998      -1.09903285E-05
   44.2799988      -1.27743415E-05
   44.4000015      -1.45618342E-05
   44.5200005      -1.63519144E-05
   44.6399994      -1.81436972E-05
   44.7599983      -1.99362948E-05
   44.8800011      -2.17288107E-05
   45.0000000      -2.35203406E-05
   45.1199989      -2.53099734E-05
   45.2400017      -2.70967939E-05
   45.3600006      -2.88798965E-05
   45.4799995      -3.06583788E-05
   45.5999985      -3.24313660E-05
   45.7200012      -3.41980085E-05
   45.8400002      -3.59574733E-05
   45.9599991      -3.77089636E-05
   46.0800018      -3.94516901E-05
   46.2000008      -4.11848960E-05
   46.3199997      -4.29078464E-05
   46.4399986      -4.46198210E-05
   46.5600014      -4.63201432E-05
   46.6800003      -4.80081653E-05
   46.7999992      -4.96832763E-05
   46.9199982      -5.13448904E-05
   47.0400009      -5.29924509E-05
   47.1599998      -5.46254232E-05
   47.2799988      -5.62432870E-05
   47.4000015      -5.78455329E-05
   47.5200005      -5.94316916E-05
   47.6399994      -6.10013121E-05
   47.7599983      -6.25540124E-05
   47.8800011      -6.40894577E-05
   48.0000000      -6.56073753E-05
   48.1199989      -6.71075759E-05
   48.2400017      -6.85898995E-05
   48.3600006      -7.00542514E-05
   48.4799995      -7.15005517E-05
   48.5999985      -7.29288004E-05
   48.7200012      -7.43389974E-05
   48.8400002      -7.57312009E-05
   48.9599991      -7.71055202E-05
   49.0800018      -7.84620861E-05
   49.2000008      -7.98010806E-05
   49.3199997      -8.11227292E-05
   49.4399986      -8.24273302E-05
   49.5600014      -8.37152402E-05
   49.6800003      -8.49868957E-05
   49.7999992      -8.62428133E-05
   49.9199982      -8.74835823E-05
   50.0400009      -8.87098649E-05
   50.1599998      -8.99223669E-05
   50.2799988      -9.11218594E-05
   50.4000015      -9.23091138E-05
   50.5200005      -9.34849668E-05
   50.6399994      -9.46502696E-05
   50.7599983      -9.58059318E-05
   50.8800011      -9.69529210E-05
   51.0000000      -9.80922705E-05
   51.1199989      -9.92250716E-05
   51.2400017      -1.00352474E-04
   51.3600006      -1.01475714E-04
   51.4799995      -1.02596088E-04
   51.5999985      -1.03714912E-04
   51.7200012      -1.04833583E-04
   51.8400002      -1.05953572E-04
   51.9599991      -1.07076383E-04
   52.0800018      -1.08203574E-04
   52.2000008      -1.09336775E-04
   52.3199997      -1.10477631E-04
   52.4399986      -1.11627822E-04
   52.5600014      -1.12789072E-04
   52.6800003      -1.13963120E-04
   52.7999992      -1.15151728E-04
   52.9199982      -1.16356736E-04
   53.0400009      -1.17579984E-04
   53.1599998      -1.18823424E-04
   53.2799988      -1.20089004E-04
   53.4000015      -1.21378733E-04
   53.5200005      -1.22694662E-04
   53.6399994      -1.24038808E-04
   53.7599983      -1.25413266E-04
   53.8800011      -1.26820058E-04
   54.0000000      -1.28261323E-04
   54.1199989      -1.29739128E-04
   54.2400017      -1.31255627E-04
   54.3600006      -1.32812929E-04
   54.4799995      -1.34413145E-04
   54.5999985      -1.36058443E-04
   54.7200012      -1.37750903E-04
   54.8400002      -1.39492622E-04
   54.9599991      -1.41285665E-04
   55.0800018      -1.43132100E-04
   55.2000008      -1.45033991E-04
   55.3199997      -1.46993407E-04
   55.4399986      -1.49012412E-04
   55.5600014      -1.51093060E-04
   55.6800003      -1.53237386E-04
   55.7999992      -1.55447386E-04
   55.9199982      -1.57724979E-04
   56.0400009      -1.60072086E-04
   56.1599998      -1.62490513E-04
   56.2799988      -1.64982062E-04
   56.4000015      -1.67548438E-04
   56.5200005      -1.70191270E-04
   56.6399994      -1.72912187E-04
   56.7599983      -1.75712747E-04
   56.8800011      -1.78594404E-04
   57.0000000      -1.81558629E-04
   57.1199989      -1.84606746E-04
   57.2400017      -1.87740050E-04
   57.3600006      -1.90959749E-04
   57.4799995      -1.94266991E-04
   57.5999985      -1.97662812E-04
   57.7200012      -2.01148112E-04
   57.8400002      -2.04723736E-04
   57.9599991      -2.08390382E-04
   58.0800018      -2.12148632E-04
   58.2000008      -2.15998996E-04
   58.3199997      -2.19941838E-04
   58.4399986      -2.23977491E-04
   58.5600014      -2.28106161E-04
   58.6800003      -2.32327919E-04
   58.7999992      -2.36642780E-04
   58.9199982      -2.41050613E-04
   59.0400009      -2.45551171E-04
   59.1599998      -2.50144047E-04
   59.2799988      -2.54828657E-04
   59.4000015      -2.59604421E-04
   59.5200005      -2.64470524E-04
   59.6399994      -2.69426120E-04
   59.7599983      -2.74470105E-04
   59.8800011      -2.79601227E-04
   60.0000000      -2.84818234E-04
   60.1199989      -2.90119613E-04
   60.2400017      -2.95503734E-04
   60.3600006      -3.00968939E-04
   60.4799995      -3.06513335E-04
   60.5999985      -3.12134856E-04
   60.7200012      -3.17831378E-04
   60.8400002      -3.23600572E-04
   60.9599991      -3.29439965E-04
   61.0800018      -3.35346936E-04
   61.2000008      -3.41318751E-04
   61.3199997      -3.47352499E-04
   61.4399986      -3.53445153E-04
   61.5600014      -3.59593541E-04
   61.6800003      -3.65794345E-04
   61.7999992      -3.72044160E-04
   61.9199982      -3.78339319E-04
   62.0400009      -3.84676037E-04
   62.1599998      -3.91050417E-04
   62.2799988      -3.97458498E-04
   62.4000015      -4.03896091E-04
   62.5200005      -4.10359004E-04
   62.6399994      -4.16842813E-04
   62.7599983      -4.23343008E-04
   62.8800011      -4.29854903E-04
   63.0000000      -4.36373608E-04
   63.1199989      -4.42894292E-04
   63.2400017      -4.49411891E-04
   63.3600006      -4.55921341E-04
   63.4799995      -4.62417462E-04
   63.5999985      -4.68894897E-04
   63.7200012      -4.75348264E-04
   63.8400002      -4.81772033E-04
   63.9599991      -4.88160615E-04
   64.0800018      -4.94508306E-04
   64.1999969      -5.00809227E-04
   64.3199997      -5.07057586E-04
   64.4400024      -5.13247331E-04
   64.5599976      -5.19372581E-04
   64.6800003      -5.25427167E-04
   64.8000031      -5.31405036E-04
   64.9199982      -5.37300017E-04
   65.0400009      -5.43105765E-04
   65.1600037      -5.48815879E-04
   65.2799988      -5.54424012E-04
   65.4000015      -5.59923938E-04
   65.5199966      -5.65309369E-04
   65.6399994      -5.70573844E-04
   65.7600021      -5.75711078E-04
   65.8799973      -5.80714724E-04
   66.0000000      -5.85578382E-04
   66.1200027      -5.90295705E-04
   66.2399979      -5.94860292E-04
   66.3600006      -5.99265681E-04
   66.4800034      -6.03505527E-04
   66.5999985      -6.07573718E-04
   66.7200012      -6.11463911E-04
   66.8399963      -6.15170109E-04
   66.9599991      -6.18686143E-04
   67.0800018      -6.22005959E-04
   67.1999969      -6.25123736E-04
   67.3199997      -6.28033420E-04
   67.4400024      -6.30729366E-04
   67.5599976      -6.33205927E-04
   67.6800003      -6.35457458E-04
   67.8000031      -6.37478486E-04
   67.9199982      -6.39263832E-04
   68.0400009      -6.40808197E-04
   68.1600037      -6.42106810E-04
   68.2799988      -6.43154606E-04
   68.4000015      -6.43946871E-04
   68.5199966      -6.44479180E-04
   68.6399994      -6.44747110E-04
   68.7600021      -6.44746469E-04
   68.8799973      -6.44473243E-04
   69.0000000      -6.43923646E-04
   69.1200027      -6.43094012E-04
   69.2399979      -6.41980907E-04
   69.3600006      -6.40581246E-04
   69.4800034      -6.38891885E-04
   69.5999985      -6.36910321E-04
   69.7200012      -6.34634111E-04
   69.8399963      -6.32060983E-04
   69.9599991      -6.29189133E-04
   70.0800018      -6.26016699E-04
   70.1999969      -6.22542342E-04
   70.3199997      -6.18764956E-04
   70.4400024      -6.14683435E-04
   70.5599976      -6.10297429E-04
   70.6800003      -6.05606474E-04
   70.8000031      -6.00610685E-04
   70.9199982      -5.95310470E-04
   71.0400009      -5.89706353E-04
   71.1600037      -5.83799207E-04
   71.2799988      -5.77590195E-04
   71.4000015      -5.71080949E-04
   71.5199966      -5.64273330E-04
   71.6399994      -5.57169609E-04
   71.7600021      -5.49772230E-04
   71.8799973      -5.42084163E-04
   72.0000000      -5.34108549E-04
   72.1200027      -5.25848998E-04
   72.2399979      -5.17309294E-04
   72.3600006      -5.08493627E-04
   72.4800034      -4.99406422E-04
   72.5999985      -4.90052451E-04
   72.7200012      -4.80436807E-04