  -30.0000000       0.00000000    
  -29.8799992       0.00000000    
  -29.7600002       0.00000000    
  -29.6399994       0.00000000    
  -29.5200005       0.00000000    
  -29.3999996       0.00000000    
  -29.2800007       2.69310999E-25
  -29.1599998       2.76098378E-24
  -29.0400009       1.31415810E-23
  -28.9200001       3.48707759E-23
  -28.7999992       3.60754075E-23
  -28.6800003      -1.14901201E-22
  -28.5599995      -6.68428982E-22
  -28.4400005      -1.76473672E-21
  -28.3199997      -2.75622376E-21
  -28.2000008      -1.28628261E-21
  -28.0799999       6.77370449E-21
  -27.9599991       2.45969409E-20
  -27.8400002       4.75166794E-20
  -27.7199993       5.39691180E-20
  -27.6000004       2.22509626E-21
  -27.4799995      -1.53845448E-19
  -27.3600006      -4.18646138E-19
  -27.2399998      -6.82971806E-19
  -27.1200008      -6.62494226E-19
  -27.0000000       8.02025533E-20
  -26.8799992       1.93937747E-18
  -26.7600002       4.84381002E-18
  -26.6399994       7.68493389E-18
  -26.5200005       7.89108632E-18
  -26.3999996       1.68342711E-18
  -26.2800007      -1.43604924E-17
  -26.1599998      -4.01197685E-17
  -26.0400009      -6.77321294E-17
  -25.9200001      -7.85000357E-17
  -25.7999992      -4.45273408E-17
  -25.6800003       6.09634031E-17
  -25.5599995       2.43055522E-16
  -25.4400005       4.58716834E-16
  -25.3199997       5.97574174E-16
  -25.2000008       4.90303010E-16
  -25.0799999      -3.53179354E-17
  -24.9599991      -1.04528037E-15
  -24.8400002      -2.36254430E-15
  -24.7199993      -3.46715276E-15
  -24.6000004      -3.52601012E-15
  -24.4799995      -1.63561723E-15
  -24.3600006       2.70723292E-15
  -24.2399998       9.01761694E-15
  -24.1200008       1.53738784E-14
  -24.0000000       1.84561754E-14
  -23.8799992       1.43706051E-14
  -23.7600002       3.10042196E-16
  -23.6399994      -2.33184647E-14
  -23.5200005      -5.11317842E-14
  -23.3999996      -7.24818561E-14
  -23.2800007      -7.35944847E-14
  -23.1599998      -4.23725487E-14
  -23.0400009       2.50902103E-14
  -22.9200001       1.18527001E-13
  -22.7999992       2.11086303E-13
  -22.6800003       2.63235018E-13
  -22.5599995       2.34015633E-13
  -22.4400005       9.78115023E-14
  -22.3199997      -1.38422273E-13
  -22.2000008      -4.24670986E-13
  -22.0799999      -6.71114477E-13
  -21.9599991      -7.68795672E-13
  -21.8400002      -6.25332577E-13
  -21.7199993      -2.06278083E-13
  -21.6000004       4.32587397E-13
  -21.4799995       1.13758363E-12
  -21.3600006       1.68434299E-12
  -21.2399998       1.83924122E-12
  -21.1200008       1.44078553E-12
  -21.0000000       4.75312443E-13
  -20.8799992      -8.82676039E-13
  -20.7600002      -2.28852831E-12
  -20.6399994      -3.30966851E-12
  -20.5200005      -3.55489531E-12
  -20.3999996      -2.81269322E-12
  -20.2800007      -1.15028603E-12
  -20.1599998       1.06832577E-12
  -20.0400009       3.26355306E-12
  -19.9200001       4.80471782E-12
  -19.7999992       5.20905021E-12
  -19.6800003       4.30779848E-12
  -19.5599995       2.31705432E-12
  -19.4400005      -2.19502300E-13
  -19.3199997      -2.60348730E-12
  -19.2000008      -4.21315587E-12
  -19.0799999      -4.70993947E-12
  -18.9599991      -4.14163365E-12
  -18.8400002      -2.90009054E-12
  -18.7199993      -1.54707508E-12
  -18.6000004      -5.75663432E-13
  -18.4799995      -2.03697356E-13
  -18.3600006      -2.86453126E-13
  -18.2399998      -3.89170494E-13
  -18.1200008       6.12634324E-15
  -18.0000000       1.24384129E-12
  -17.8799992       3.29779043E-12
  -17.7600002       5.72281979E-12
  -17.6399994       7.78334775E-12
  -17.5200005       8.71149854E-12
  -17.3999996       7.98976076E-12
  -17.2800007       5.54007101E-12
  -17.1599998       1.74093248E-12
  -17.0400009      -2.72912227E-12
  -16.9200001      -7.14370446E-12
  -16.7999992      -1.09533502E-11
  -16.6800003      -1.38734657E-11
  -16.5599995      -1.57957362E-11
  -16.4400005      -1.65793247E-11
  -16.3199997      -1.58545607E-11
  -16.2000008      -1.29873074E-11
  -16.0799999      -7.29028643E-12
  -15.9600000       1.55255442E-12
  -15.8400002       1.30106923E-11
  -15.7200003       2.54174806E-11
  -15.6000004       3.60788344E-11
  -15.4799995       4.18624059E-11
  -15.3599997       4.01540572E-11
  -15.2399998       2.98834568E-11
  -15.1199999       1.22282583E-11
  -15.0000000      -9.33934874E-12
  -14.8800001      -2.97998744E-11
  -14.7600002      -4.39791398E-11
  -14.6400003      -4.81721538E-11
  -14.5200005      -4.14449516E-11
  -14.3999996      -2.61168136E-11
  -14.2799997      -7.17493296E-12
  -14.1599998       9.25942569E-12
  -14.0400000       1.79394850E-11
  -13.9200001       1.62942698E-11
  -13.8000002       5.37008112E-12
  -13.6800003      -1.04672590E-11
  -13.5600004      -2.50166970E-11
  -13.4399996      -3.24202921E-11
  -13.3199997      -2.92606703E-11
  -13.1999998      -1.57940466E-11
  -13.0799999       4.17796266E-12
  -12.9600000       2.48019313E-11
  -12.8400002       4.05104214E-11
  -12.7200003       4.83228388E-11
  -12.6000004       4.91821965E-11
  -12.4799995       4.77084899E-11
  -12.3599997       5.03191933E-11
  -12.2399998       6.23003454E-11
  -12.1199999       8.48717416E-11
  -12.0000000       1.13388701E-10
  -11.8800001       1.37496320E-10
  -11.7600002       1.43392603E-10
  -11.6400003       1.17587440E-10
  -11.5200005       5.09438255E-11
  -11.3999996      -5.84080700E-11
  -11.2799997      -2.04387965E-10
  -11.1599998      -3.74889564E-10
  -11.0400000      -5.55776536E-10
  -10.9200001      -7.35642769E-10
  -10.8000002      -9.09678777E-10
  -10.6800003      -1.08120335E-09
  -10.5600004      -1.26016808E-09
  -10.4399996      -1.45896473E-09
  -10.3199997      -1.68684067E-09
  -10.1999998      -1.94479499E-09
  -10.0799999      -2.22278573E-09
  -9.96000004      -2.50041210E-09
  -9.84000015      -2.75115153E-09
  -9.72000027      -2.94906388E-09
  -9.60000038      -3.07603742E-09
  -9.47999954      -3.12738613E-09
  -9.35999966      -3.11406034E-09
  -9.23999977      -3.06072234E-09
  -9.11999989      -3.00017700E-09
  -9.00000000      -2.96573477E-09
  -8.88000011      -2.98367397E-09
  -8.76000023      -3.06788062E-09
  -8.64000034      -3.21803695E-09
  -8.52000046      -3.42161743E-09
  -8.39999962      -3.65881903E-09
  -8.27999973      -3.90874222E-09
  -8.15999985      -4.15488133E-09
  -8.03999996      -4.38834880E-09
  -7.92000008      -4.60808947E-09
  -7.80000019      -4.81836393E-09
  -7.67999983      -5.02465758E-09
  -7.55999994      -5.22964960E-09
  -7.44000006      -5.43078782E-09
  -7.32000017      -5.62042235E-09
  -7.19999981      -5.78853809E-09
  -7.07999992      -5.92717431E-09
  -6.96000004      -6.03499606E-09
  -6.84000015      -6.12034601E-09
  -6.71999979      -6.20156548E-09
  -6.59999990      -6.30427044E-09
  -6.48000002      -6.45630793E-09
  -6.36000013      -6.68192079E-09
  -6.23999977      -6.99691460E-09
  -6.11999989      -7.40622541E-09
  -6.00000000      -7.90438914E-09
  -5.88000011      -8.47835846E-09
  -5.76000023      -9.11132236E-09
  -5.63999987      -9.78606707E-09
  -5.51999998      -1.04868825E-08
  -5.40000010      -1.12000151E-08
  -5.28000021      -1.19135741E-08
  -5.15999985      -1.26181519E-08
  -5.03999996      -1.33090934E-08
  -4.92000008      -1.39902028E-08
  -4.80000019      -1.46775214E-08
  -4.67999983      -1.54009339E-08
  -4.55999994      -1.62015752E-08
  -4.44000006      -1.71241687E-08
  -4.32000017      -1.82054354E-08
  -4.19999981      -1.94614778E-08
  -4.07999992      -2.08781792E-08
  -3.96000004      -2.24081749E-08
  -3.83999991      -2.39763676E-08
  -3.72000003      -2.54932946E-08
  -3.59999990      -2.68732148E-08
  -3.48000002      -2.80522574E-08
  -3.35999990      -2.90018249E-08
  -3.24000001      -2.97338598E-08
  -3.11999989      -3.02968104E-08
  -3.00000000      -3.07636441E-08
  -2.88000011      -3.12151052E-08
  -2.75999999      -3.17223012E-08
  -2.64000010      -3.23324407E-08
  -2.51999998      -3.30605161E-08
  -2.40000010      -3.38880461E-08
  -2.27999997      -3.47685187E-08
  -2.16000009      -3.56378500E-08
  -2.03999996      -3.64272381E-08
  -1.91999996      -3.70756439E-08
  -1.79999995      -3.75393086E-08
  -1.67999995      -3.77964788E-08
  -1.55999994      -3.78467355E-08
  -1.44000006      -3.77053908E-08
  -1.32000005      -3.73946172E-08
  -1.20000005      -3.69335922E-08
  -1.08000004      -3.63299044E-08
 -0.959999979      -3.55741498E-08
 -0.839999974      -3.46385782E-08
 -0.720000029      -3.34797683E-08
 -0.600000024      -3.20442091E-08
 -0.479999989      -3.02754302E-08
 -0.360000014      -2.81207466E-08
 -0.239999995      -2.55362931E-08
 -0.119999997      -2.24891163E-08
  -1.11022302E-15  -1.89560883E-08
  0.119999997      -1.49198627E-08
  0.239999995      -1.03628501E-08
  0.360000014      -5.26069321E-09
  0.479999989       4.23301560E-10
  0.600000024       6.74156508E-09
  0.720000029       1.37628797E-08
  0.839999974       2.15702727E-08
  0.959999979       3.02571586E-08
   1.08000004       3.99226607E-08
   1.20000005       5.06672002E-08
   1.32000005       6.25889527E-08
   1.44000006       7.57815073E-08
   1.55999994       9.03327830E-08
   1.67999995       1.06324983E-07
   1.79999995       1.23836045E-07
   1.91999996       1.42942241E-07
   2.03999996       1.63721936E-07
   2.16000009       1.86259953E-07
   2.27999997       2.10651052E-07
   2.40000010       2.37001572E-07
   2.51999998       2.65428611E-07
   2.64000010       2.96056555E-07
   2.75999999       3.29012749E-07
   2.88000011       3.64424494E-07
   3.00000000       4.02418465E-07
   3.11999989       4.43124236E-07
   3.24000001       4.86680165E-07
   3.35999990       5.33239984E-07
   3.48000002       5.82978430E-07
   3.59999990       6.36092636E-07
   3.72000003       6.92801223E-07
   3.83999991       7.53341794E-07
   3.96000004       8.17968726E-07
   4.07999992       8.86952876E-07
   4.19999981       9.60582270E-07
   4.32000017       1.03916170E-06
   4.44000006       1.12300950E-06
   4.55999994       1.21244841E-06
   4.67999983       1.30779279E-06
   4.80000019       1.40933582E-06
   4.92000008       1.51734184E-06
   5.03999996       1.63204845E-06
   5.15999985       1.75368029E-06
   5.28000021       1.88246952E-06
   5.40000010       2.01867942E-06
   5.51999998       2.16262129E-06
   5.63999987       2.31466174E-06
   5.76000023       2.47521598E-06
   5.88000011       2.64473510E-06
   6.00000000       2.82368819E-06
   6.11999989       3.01255113E-06
   6.23999977       3.21180232E-06
   6.36000013       3.42192243E-06
   6.48000002       3.64340076E-06
   6.59999990       3.87673253E-06
   6.71999979       4.12241616E-06
   6.84000015       4.38094094E-06
   6.96000004       4.65278254E-06
   7.07999992       4.93839616E-06
   7.19999981       5.23822837E-06
   7.32000017       5.55273618E-06
   7.44000006       5.88240937E-06
   7.55999994       6.22778953E-06
   7.67999983       6.58948056E-06
   7.80000019       6.96814095E-06
   7.92000008       7.36446327E-06
   8.03999996       7.77915284E-06
   8.15999985       8.21290450E-06
   8.27999973       8.66639402E-06
   8.39999962       9.14027987E-06
   8.52000046       9.63521779E-06
   8.64000034       1.01518799E-05
   8.76000023       1.06909656E-05
   8.88000011       1.12532098E-05
   9.00000000       1.18393773E-05
   9.11999989       1.24502521E-05
   9.23999977       1.30866256E-05
   9.35999966       1.37492925E-05
   9.47999954       1.44390451E-05
   9.60000038       1.51566792E-05
   9.72000027       1.59029987E-05
   9.84000015       1.66788213E-05
   9.96000004       1.74849829E-05
   10.0799999       1.83223347E-05
   10.1999998       1.91917461E-05
   10.3199997       2.00941031E-05
   10.4399996       2.10303042E-05
   10.5600004       2.20012716E-05
   10.6800003       2.30079349E-05
   10.8000002       2.40512345E-05
   10.9200001       2.51320962E-05
   11.0400000       2.62514313E-05
   11.1599998       2.74101185E-05
   11.2799997       2.86090253E-05
   11.3999996       2.98489867E-05
   11.5200005       3.11308504E-05
   11.6400003       3.24554894E-05
   11.7600002       3.38238169E-05
   11.8800001       3.52367861E-05
   12.0000000       3.66953900E-05
   12.1199999       3.82006147E-05
   12.2399998       3.97534386E-05
   12.3599997       4.13547932E-05
   12.4799995       4.30055661E-05
   12.6000004       4.47066013E-05
   12.7200003       4.64587247E-05
   12.8400002       4.82627765E-05
   12.9600000       5.01196046E-05
   13.0799999       5.20300637E-05
   13.1999998       5.39950270E-05
   13.3199997       5.60153385E-05
   13.4399996       5.80918168E-05
   13.5600004       6.02252330E-05
   13.6800003       6.24163076E-05
   13.8000002       6.46657645E-05
   13.9200001       6.69743240E-05
   14.0400000       6.93426919E-05
   14.1599998       7.17716175E-05
   14.2799997       7.42617849E-05
   14.3999996       7.68138634E-05
   14.5200005       7.94284642E-05
   14.6400003       8.21061330E-05
   14.7600002       8.48473355E-05
   14.8800001       8.76525082E-05
   15.0000000       9.05220804E-05
   15.1199999       9.34564669E-05
   15.2399998       9.64560604E-05
   15.3599997       9.95212395E-05
   15.4799995       1.02652353E-04
   15.6000004       1.05849635E-04
   15.7200003       1.09113309E-04
   15.8400002       1.12443486E-04
   15.9600000       1.15840245E-04
   16.0799999       1.19303593E-04
   16.2000008       1.22833546E-04
   16.3199997       1.26430037E-04
   16.4400005       1.30092914E-04
   16.5599995       1.33821974E-04
   16.6800003       1.37616895E-04
   16.7999992       1.41477256E-04
   16.9200001       1.45402606E-04
   17.0400009       1.49392421E-04
   17.1599998       1.53446133E-04
   17.2800007       1.57563118E-04
   17.3999996       1.61742748E-04
   17.5200005       1.65984282E-04
   17.6399994       1.70286905E-04
   17.7600002       1.74649686E-04
   17.8799992       1.79071591E-04
   18.0000000       1.83551456E-04
   18.1200008       1.88088015E-04
   18.2399998       1.92679872E-04
   18.3600006       1.97325615E-04
   18.4799995       2.02023686E-04
   18.6000004       2.06772442E-04
   18.7199993       2.11570165E-04
   18.8400002       2.16415006E-04
   18.9599991       2.21305017E-04
   19.0799999       2.26238117E-04
   19.2000008       2.31212209E-04
   19.3199997       2.36225038E-04
   19.4400005       2.41274261E-04
   19.5599995       2.46357493E-04
   19.6800003       2.51472200E-04
   19.7999992       2.56615662E-04
   19.9200001       2.61785026E-04
   20.0400009       2.66977324E-04
   20.1599998       2.72189471E-04
   20.2800007       2.77418119E-04
   20.3999996       2.82660039E-04
   20.5200005       2.87911709E-04
   20.6399994       2.93169549E-04
   20.7600002       2.98429950E-04
   20.8799992       3.03689041E-04
   21.0000000       3.08942894E-04
   21.1200008       3.14187520E-04
   21.2399998       3.19418759E-04
   21.3600006       3.24632449E-04
   21.4799995       3.29824252E-04
   21.6000004       3.34989862E-04
   21.7199993       3.40124709E-04
   21.8400002       3.45224194E-04
   21.9599991       3.50283488E-04
   22.0799999       3.55297670E-04
   22.2000008       3.60261532E-04
   22.3199997       3.65169952E-04
   22.4400005       3.70017515E-04
   22.5599995       3.74798808E-04
   22.6800003       3.79508332E-04
   22.7999992       3.84140643E-04
   22.9200001       3.88690067E-04
   23.0400009       3.93150985E-04
   23.1599998       3.97517724E-04
   23.2800007       4.01784491E-04
   23.3999996       4.05945408E-04
   23.5200005       4.09994653E-04
   23.6399994       4.13926173E-04
   23.7600002       4.17733943E-04
   23.8799992       4.21411853E-04
   24.0000000       4.24953818E-04
   24.1200008       4.28353640E-04
   24.2399998       4.31605062E-04
   24.3600006       4.34701942E-04
   24.4799995       4.37638024E-04
   24.6000004       4.40407050E-04
   24.7199993       4.43002937E-04
   24.8400002       4.45419573E-04
   24.9599991       4.47650789E-04
   25.0799999       4.49690502E-04
   25.2000008       4.51532746E-04
   25.3199997       4.53171495E-04
   25.4400005       4.54600813E-04
   25.5599995       4.55814763E-04
   25.6800003       4.56807582E-04
   25.7999992       4.57573566E-04
   25.9200001       4.58107184E-04
   26.0400009       4.58402996E-04
   26.1599998       4.58455645E-04
   26.2800007       4.58259921E-04
   26.3999996       4.57810791E-04
   26.5200005       4.57103277E-04
   26.6399994       4.56132606E-04
   26.7600002       4.54894180E-04
   26.8799992       4.53383633E-04
   27.0000000       4.51596745E-04
   27.1200008       4.49529471E-04
   27.2399998       4.47178056E-04
   27.3600006       4.44538950E-04
   27.4799995       4.41608776E-04
   27.6000004       4.38384654E-04
   27.7199993       4.34863672E-04
   27.8400002       4.31043532E-04
   27.9599991       4.26921964E-04
   28.0799999       4.22497047E-04
   28.2000008       4.17767034E-04
   28.3199997       4.12730471E-04
   28.4400005       4.07386164E-04
   28.5599995       4.01733327E-04
   28.6800003       3.95771494E-04
   28.7999992       3.89500550E-04
   28.9200001       3.82920844E-04
   29.0400009       3.76033102E-04
   29.1599998       3.68838344E-04
   29.2800007       3.61337996E-04
   29.3999996       3.53533716E-04
   29.5200005       3.45427601E-04
   29.6399994       3.37022066E-04
   29.7600002       3.28319788E-04
   29.8799992       3.19324055E-04
   30.0000000       3.10038362E-04
   30.1200008       3.00466752E-04
   30.2399998       2.90613505E-04
   30.3600006       2.80483480E-04
   30.4799995       2.70081655E-04
   30.6000004       2.59413559E-04
   30.7199993       2.48485099E-04
   30.8400002       2.37302476E-04
   30.9599991       2.25872340E-04
   31.0799999       2.14201704E-04
   31.2000008       2.02297888E-04
   31.3199997       1.90168663E-04
   31.4400005       1.77822076E-04
   31.5599995       1.65266538E-04
   31.6800003       1.52510853E-04
   31.7999992       1.39564174E-04
   31.9200001       1.26435989E-04
   32.0400009       1.13136142E-04
   32.1599998       9.96747767E-05
   32.2799988       8.60623404E-05
   32.4000015       7.23095654E-05
   32.5200005       5.84274167E-05
   32.6399994       4.44270991E-05
   32.7599983       3.03200359E-05
   32.8800011       1.61178850E-05
   33.0000000       1.83252462E-06
   33.1199989      -1.25239394E-05
   33.2400017      -2.69391785E-05
   33.3600006      -4.14006718E-05
   33.4799995      -5.58956890E-05
   33.5999985      -7.04114354E-05
   33.7200012      -8.49349744E-05
   33.8400002      -9.94533184E-05
   33.9599991      -1.13953385E-04
   34.0800018      -1.28422005E-04
   34.2000008      -1.42845878E-04
   34.3199997      -1.57211733E-04
   34.4399986      -1.71506166E-04
   34.5600014      -1.85715806E-04
   34.6800003      -1.99827409E-04
   34.7999992      -2.13827690E-04
   34.9199982      -2.27703553E-04
   35.0400009      -2.41441958E-04
   35.1599998      -2.55029910E-04
   35.2799988      -2.68454663E-04
   35.4000015      -2.81703426E-04
   35.5200005      -2.94763624E-04
   35.6399994      -3.07622890E-04
   35.7599983      -3.20269086E-04
   35.8800011      -3.32690339E-04
   36.0000000      -3.44874978E-04
   36.1199989      -3.56811768E-04
   36.2400017      -3.68489564E-04
   36.3600006      -3.79897654E-04
   36.4799995      -3.91025445E-04
   36.5999985      -4.01862751E-04
   36.7200012      -4.12399619E-04
   36.8400002      -4.22626501E-04
   36.9599991      -4.32534289E-04
   37.0800018      -4.42114193E-04
   37.2000008      -4.51357977E-04
   37.3199997      -4.60257783E-04
   37.4399986      -4.68806305E-04
   37.5600014      -4.76996589E-04
   37.6800003      -4.84822114E-04
   37.7999992      -4.92276915E-04
   37.9199982      -4.99355432E-04
   38.0400009      -5.06052515E-04
   38.1599998      -5.12363622E-04
   38.2799988      -5.18284389E-04
   38.4000015      -5.23811381E-04
   38.5200005      -5.28941280E-04
   38.6399994      -5.33671642E-04
   38.7599983      -5.38000255E-04
   38.8800011      -5.41925605E-04
   39.0000000      -5.45446877E-04
   39.1199989      -5.48563607E-04
   39.2400017      -5.51275909E-04
   39.3600006      -5.53584425E-04
   39.4799995      -5.55490318E-04
   39.5999985      -5.56995161E-04
   39.7200012      -5.58101048E-04
   39.8400002      -5.58810541E-04
   39.9599991      -5.59126493E-04
   40.0800018      -5.59052511E-04
   40.2000008      -5.58592496E-04
   40.3199997      -5.57751104E-04
   40.4399986      -5.56533458E-04
   40.5600014      -5.54945145E-04
   40.6800003      -5.52992278E-04
   40.7999992      -5.50681259E-04
   40.9199982      -5.48019249E-04
   41.0400009      -5.45013172E-04
   41.1599998      -5.41670714E-04
   41.2799988      -5.37999673E-04
   41.4000015      -5.34008199E-04
   41.5200005      -5.29705023E-04
   41.6399994      -5.25098876E-04
   41.7599983      -5.20199072E-04
   41.8800011      -5.15015156E-04
   42.0000000      -5.09557140E-04
   42.1199989      -5.03835210E-04
   42.2400017      -4.97859612E-04
   42.3600006      -4.91641113E-04
   42.4799995      -4.85190569E-04
   42.5999985      -4.78518923E-04
   42.7200012      -4.71637381E-04
   42.8400002      -4.64557233E-04
   42.9599991      -4.57289949E-04
   43.0800018      -4.49846964E-04
   43.2000008      -4.42239863E-04
   43.3199997      -4.34480200E-04
   43.4399986      -4.26579616E-04
   43.5600014      -4.18549811E-04
   43.6800003      -4.10402485E-04
   43.7999992      -4.02149279E-04
   43.9199982      -3.93801834E-04
   44.0400009      -3.85371706E-04
   44.1599998      -3.76870332E-04
   44.2799988      -3.68309149E-04
   44.4000015      -3.59699392E-04
   44.5200005      -3.51052178E-04
   44.6399994      -3.42378626E-04
   44.7599983      -3.33689532E-04
   44.8800011      -3.24995723E-04
   45.0000000      -3.16307764E-04
   45.1199989      -3.07636132E-04
   45.2400017      -2.98990926E-04
   45.3600006      -2.90382071E-04
   45.4799995      -2.81819230E-04
   45.5999985      -2.73311627E-04
   45.7200012      -2.64868257E-04
   45.8400002      -2.56497762E-04
   45.9599991      -2.48208467E-04
   46.0800018      -2.40008507E-04
   46.2000008      -2.31905666E-04
   46.3199997      -2.23907526E-04
   46.4399986      -2.16021435E-04
   46.5600014      -2.08254351E-04
   46.6800003      -2.00612951E-04
   46.7999992      -1.93103508E-04
   46.9199982      -1.85731857E-04
   47.0400009      -1.78503498E-04
   47.1599998      -1.71423526E-04
   47.2799988      -1.64496683E-04
   47.4000015      -1.57727365E-04
   47.5200005      -1.51119748E-04
   47.6399994      -1.44677644E-04
   47.7599983      -1.38404590E-04
   47.8800011      -1.32303772E-04
   48.0000000      -1.26377970E-04
   48.1199989      -1.20629527E-04
   48.2400017      -1.15060371E-04
   48.3600006      -1.09672015E-04
   48.4799995      -1.04465653E-04
   48.5999985      -9.94421571E-05
   48.7200012      -9.46021610E-05
   48.8400002      -8.99460720E-05
   48.9599991      -8.54740138E-05
   49.0800018      -8.11858627E-05
   49.2000008      -7.70811312E-05
   49.3199997      -7.31590408E-05
   49.4399986      -6.94184491E-05
   49.5600014      -6.58579302E-05
   49.6800003      -6.24758468E-05
   49.7999992      -5.92703327E-05
   49.9199982      -5.62393507E-05
   50.0400009      -5.33806560E-05
   50.1599998      -5.06917713E-05
   50.2799988      -4.81699426E-05
   50.4000015      -4.58121540E-05
   50.5200005      -4.36151568E-05
   50.6399994      -4.15754985E-05
   50.7599983      -3.96896066E-05
   50.8800011      -3.79538324E-05
   51.0000000      -3.63644540E-05
   51.1199989      -3.49176589E-05
   51.2400017      -3.36094963E-05
   51.3600006      -3.24358771E-05
   51.4799995      -3.13925302E-05
   51.5999985      -3.04750520E-05
   51.7200012      -2.96789403E-05
   51.8400002      -2.89996606E-05
   51.9599991      -2.84326889E-05
   52.0800018      -2.79735195E-05
   52.2000008      -2.76176634E-05
   52.3199997      -2.73606038E-05
   52.4399986      -2.71977806E-05
   52.5600014      -2.71245699E-05
   52.6800003      -2.71363097E-05
   52.7999992      -2.72283160E-05
   52.9199982      -2.73959195E-05
   53.0400009      -2.76345072E-05
   53.1599998      -2.79395153E-05
   53.2799988      -2.83064601E-05
   53.4000015      -2.87309031E-05
   53.5200005      -2.92084769E-05
   53.6399994      -2.97348688E-05
   53.7599983      -3.03058368E-05
   53.8800011      -3.09172319E-05
   54.0000000      -3.15649922E-05
   54.1199989      -3.22451633E-05
   54.2400017      -3.29538889E-05
   54.3600006      -3.36874255E-05
   54.4799995      -3.44421387E-05
   54.5999985      -3.52144962E-05
   54.7200012      -3.60010672E-05
   54.8400002      -3.67985376E-05
   54.9599991      -3.76036842E-05
   55.0800018      -3.84133673E-05
   55.2000008      -3.92245456E-05
   55.3199997      -4.00342760E-05
   55.4399986      -4.08397354E-05
   55.5600014      -4.16382572E-05
   55.6800003      -4.24273712E-05
   55.7999992      -4.32047855E-05
   55.9199982      -4.39683899E-05
   56.0400009      -4.47162092E-05
   56.1599998      -4.54463552E-05
   56.2799988      -4.61569834E-05
   56.4000015      -4.68462931E-05
   56.5200005      -4.75125344E-05
   56.6399994      -4.81540665E-05
   56.7599983      -4.87694160E-05
   56.8800011      -4.93573025E-05
   57.0000000      -4.99166454E-05
   57.1199989      -5.04465352E-05
   57.2400017      -5.09461861E-05
   57.3600006      -5.14148924E-05
   57.4799995      -5.18519846E-05
   57.5999985      -5.22568444E-05
   57.7200012      -5.26289405E-05
   57.8400002      -5.29678655E-05
   57.9599991      -5.32733357E-05
   58.0800018      -5.35452346E-05
   58.2000008      -5.37835294E-05
   58.3199997      -5.39882567E-05
   58.4399986      -5.41594600E-05
   58.5600014      -5.42971829E-05
   58.6800003      -5.44014947E-05
   58.7999992      -5.44725299E-05
   58.9199982      -5.45105504E-05
   59.0400009      -5.45159965E-05
   59.1599998      -5.44894756E-05
   59.2799988      -5.44317227E-05
   59.4000015      -5.43435490E-05
   59.5200005      -5.42257585E-05
   59.6399994      -5.40791189E-05
   59.7599983      -5.39043358E-05
   59.8800011      -5.37020896E-05
   60.0000000      -5.34730607E-05
   60.1199989      -5.32180020E-05
   60.2400017      -5.29377103E-05
   60.3600006      -5.26330696E-05
   60.4799995      -5.23050039E-05
   60.5999985      -5.19544446E-05
   60.7200012      -5.15823122E-05
   60.8400002      -5.11895414E-05
   60.9599991      -5.07770746E-05
   61.0800018      -5.03459196E-05
   61.2000008      -4.98971422E-05
   61.3199997      -4.94318665E-05
   61.4399986      -4.89512531E-05
   61.5600014      -4.84564225E-05
   61.6800003      -4.79484443E-05
   61.7999992      -4.74282970E-05
   61.9199982      -4.68968719E-05
   62.0400009      -4.63550277E-05
   62.1599998      -4.58035902E-05
   62.2799988      -4.52434288E-05
   62.4000015      -4.46754275E-05
   62.5200005      -4.41005177E-05
   62.6399994      -4.35196162E-05
   62.7599983      -4.29336214E-05
   62.8800011      -4.23433885E-05
   63.0000000      -4.17497467E-05
   63.1199989      -4.11534893E-05
   63.2400017      -4.05554129E-05
   63.3600006      -3.99563069E-05
   63.4799995      -3.93569535E-05
   63.5999985      -3.87581349E-05
   63.7200012      -3.81605969E-05
   63.8400002      -3.75650307E-05
   63.9599991      -3.69721020E-05
   64.0800018      -3.63824183E-05
   64.1999969      -3.57965655E-05
   64.3199997      -3.52150964E-05
   64.4400024      -3.46385277E-05
   64.5599976      -3.40673141E-05
   64.6800003      -3.35018703E-05
   64.8000031      -3.29425420E-05
   64.9199982      -3.23896347E-05
   65.0400009      -3.18434359E-05
   65.1600037      -3.13042365E-05
   65.2799988      -3.07723531E-05
   65.4000015      -3.02481276E-05
   65.5199966      -2.97319057E-05
   65.6399994      -2.92240129E-05
   65.7600021      -2.87247312E-05
   65.8799973      -2.82342862E-05
   66.0000000      -2.77528616E-05
   66.1200027      -2.72806119E-05
   66.2399979      -2.68176773E-05
   66.3600006      -2.63641832E-05
   66.4800034      -2.59202334E-05
   66.5999985      -2.54858696E-05
   66.7200012      -2.50610792E-05
   66.8399963      -2.46457694E-05
   66.9599991      -2.42397891E-05
   67.0800018      -2.38429639E-05
   67.1999969      -2.34551499E-05
   67.3199997      -2.30762489E-05
   67.4400024      -2.27062374E-05
   67.5599976      -2.23451370E-05
   67.6800003      -2.19930007E-05
   67.8000031      -2.16498538E-05
   67.9199982      -2.13156763E-05
   68.0400009      -2.09903774E-05
   68.1600037      -2.06738150E-05
   68.2799988      -2.03658055E-05
   68.4000015      -2.00661489E-05
   68.5199966      -1.97746358E-05
   68.6399994      -1.94910554E-05
   68.7600021      -1.92151765E-05
   68.8799973      -1.89467410E-05
   69.0000000      -1.86854668E-05
   69.1200027      -1.84310593E-05
   69.2399979      -1.81832384E-05
   69.3600006      -1.79417493E-05
   69.4800034      -1.77063957E-05
   69.5999985      -1.74770248E-05
   69.7200012      -1.72535038E-05
   69.8399963      -1.70356998E-05
   69.9599991      -1.68234437E-05
   70.0800018      -1.66165210E-05
   70.1999969      -1.64146768E-05
   70.3199997      -1.62176329E-05
   70.4400024      -1.60251147E-05
   70.5599976      -1.58368694E-05
   70.6800003      -1.56526748E-05
   70.8000031      -1.54723366E-05
   70.9199982      -1.52956727E-05
   71.0400009      -1.51224867E-05
   71.1600037      -1.49525667E-05
   71.2799988      -1.47856799E-05
   71.4000015      -1.46215698E-05
   71.5199966      -1.44599835E-05
   71.6399994      -1.43006773E-05
   71.7600021      -1.41434384E-05
   71.8799973      -1.39880904E-05
   72.0000000      -1.38344967E-05
   72.1200027      -1.36825547E-05
   72.2399979      -1.35321779E-05
   72.3600006      -1.33832782E-05
   72.4800034      -1.32357354E-05
   72.5999985      -1.30893886E-05
   72.7200012      -1.29440305E-05