  -30.0000000       0.00000000    
  -29.8799992       0.00000000    
  -29.7600002       0.00000000    
  -29.6399994       0.00000000    
  -29.5200005       0.00000000    
  -29.3999996       0.00000000    
  -29.2800007       0.00000000    
  -29.1599998       0.00000000    
  -29.0400009       1.36190042E-32
  -28.9200001       1.44605248E-31
  -28.7999992       6.02094225E-31
  -28.6800003       5.02249239E-31
  -28.5599995      -7.06839386E-30
  -28.4400005      -4.21409662E-29
  -28.3199997      -1.25466873E-28
  -28.2000008      -1.96255728E-28
  -28.0799999       6.00348836E-29
  -27.9599991       1.28082777E-27
  -27.8400002       3.80045104E-27
  -27.7199993       5.63132209E-27
  -27.6000004      -3.30713323E-28
  -27.4799995      -2.55829471E-26
  -27.3600006      -7.30319599E-26
  -27.2399998      -1.04562206E-25
  -27.1200008      -5.33613510E-28
  -27.0000000       4.36191566E-25
  -26.8799992       1.33379636E-24
  -26.7600002       2.37535603E-24
  -26.6399994       2.26352356E-24
  -26.5200005      -1.54281225E-24
  -26.3999996      -1.19344494E-23
  -26.2800007      -2.90730585E-23
  -26.1599998      -4.49637968E-23
  -26.0400009      -3.80132254E-23
  -25.9200001       2.61993849E-23
  -25.7999992       1.78559448E-22
  -25.6800003       4.07214947E-22
  -25.5599995       6.01275285E-22
  -25.4400005       5.09278907E-22
  -25.3199997      -2.24374634E-22
  -25.2000008      -1.86930096E-21
  -25.0799999      -4.23331125E-21
  -24.9599991      -6.20066179E-21
  -24.8400002      -5.49249340E-21
  -24.7199993       8.54058934E-22
  -24.6000004       1.48167693E-20
  -24.4799995       3.45237206E-20
  -24.3600006       5.11912031E-20
  -24.2399998       4.81453335E-20
  -24.1200008       5.00559018E-21
  -24.0000000      -9.07335125E-20
  -23.8799992      -2.25945599E-19
  -23.7600002      -3.45091764E-19
  -23.6399994      -3.47760895E-19
  -23.5200005      -1.15923857E-19
  -23.3999996       4.21017044E-19
  -23.2800007       1.19478205E-18
  -23.1599998       1.91981506E-18
  -23.0400009       2.09142382E-18
  -22.9200001       1.12438123E-18
  -22.7999992      -1.34564450E-18
  -22.6800003      -5.06282387E-18
  -22.5599995      -8.82860208E-18
  -22.4400005      -1.05078871E-17
  -22.3199997      -7.59146000E-18
  -22.2000008       1.63635050E-18
  -22.0799999       1.65975726E-17
  -21.9599991       3.32234049E-17
  -21.8400002       4.39111442E-17
  -21.7199993       3.93486972E-17
  -21.6000004       1.23115437E-17
  -21.4799995      -3.74558796E-17
  -21.3600006      -9.91977159E-17
  -21.2399998      -1.50414059E-16
  -21.1200008      -1.61454644E-16
  -21.0000000      -1.05781524E-16
  -20.8799992       2.63317744E-17
  -20.7600002       2.15477333E-16
  -20.6399994       4.08325652E-16
  -20.5200005       5.25565203E-16
  -20.3999996       4.84126075E-16
  -20.2800007       2.29707977E-16
  -20.1599998      -2.29974924E-16
  -20.0400009      -8.04177368E-16
  -19.9200001      -1.32246111E-15
  -19.7999992      -1.56890121E-15
  -19.6800003      -1.34435119E-15
  -19.5599995      -5.43504038E-16
  -19.4400005       7.74913439E-16
  -19.3199997       2.35001731E-15
  -19.2000008       3.73496341E-15
  -19.0799999       4.37995020E-15
  -18.9599991       3.77870461E-15
  -18.8400002       1.65502837E-15
  -18.7199993      -1.85537506E-15
  -18.6000004      -6.08991405E-15
  -18.4799995      -9.87851328E-15
  -18.3600006      -1.17491889E-14
  -18.2399998      -1.03277016E-14
  -18.1200008      -4.86879790E-15
  -18.0000000       4.22486947E-15
  -17.8799992       1.51021350E-14
  -17.7600002       2.45913180E-14
  -17.6399994       2.88828003E-14
  -17.5200005       2.47158200E-14
  -17.3999996       1.07895294E-14
  -17.2800007      -1.10832643E-14
  -17.1599998      -3.56330498E-14
  -17.0400009      -5.50151389E-14
  -16.9200001      -6.09643561E-14
  -16.7999992      -4.77631477E-14
  -16.6800003      -1.50876524E-14
  -16.5599995       3.04305599E-14
  -16.4400005       7.58954125E-14
  -16.3199997       1.05407917E-13
  -16.2000008       1.05262167E-13
  -16.0799999       6.95068799E-14
  -15.9600000       3.78800800E-15
  -15.8400002      -7.43959676E-14
  -15.7200003      -1.39873031E-13
  -15.6000004      -1.67677558E-13
  -15.4799995      -1.42292889E-13
  -15.3599997      -6.49390955E-14
  -15.2399998       4.42450269E-14
  -15.1199999       1.50822497E-13
  -15.0000000       2.16792865E-13
  -14.8800001       2.14240436E-13
  -14.7600002       1.37047491E-13
  -14.6400003       5.84428297E-15
  -14.5200005      -1.36681438E-13
  -14.3999996      -2.39596564E-13
  -14.2799997      -2.62436801E-13
  -14.1599998      -1.92046289E-13
  -14.0400000      -5.05597049E-14
  -13.9200001       1.09872167E-13
  -13.8000002       2.25260430E-13
  -13.6800003       2.45188825E-13
  -13.5600004       1.55977051E-13
  -13.4399996      -8.39892290E-15
  -13.3199997      -1.74128968E-13
  -13.1999998      -2.53922127E-13
  -13.0799999      -1.83981492E-13
  -12.9600000       4.20324515E-14
  -12.8400002       3.56810284E-13
  -12.7200003       6.31096575E-13
  -12.6000004       7.13962472E-13
  -12.4799995       4.91061781E-13
  -12.3599997      -5.86599251E-14
  -12.2399998      -8.30164062E-13
  -12.1199999      -1.60055975E-12
  -12.0000000      -2.08309368E-12
  -11.8800001      -2.01563397E-12
  -11.7600002      -1.25825880E-12
  -11.6400003       1.32450745E-13
  -11.5200005       1.88145810E-12
  -11.3999996       3.54102706E-12
  -11.2799997       4.59919255E-12
  -11.1599998       4.62504167E-12
  -11.0400000       3.41023303E-12
  -10.9200001       1.06295821E-12
  -10.8000002      -1.97932491E-12
  -10.6800003      -5.03072627E-12
  -10.5600004      -7.31688148E-12
  -10.4399996      -8.17505005E-12
  -10.3199997      -7.24061609E-12
  -10.1999998      -4.56635294E-12
  -10.0799999      -6.36708351E-13
  -9.96000004       3.73259973E-12
  -9.84000015       7.58692328E-12
  -9.72000027       1.00667825E-11
  -9.60000038       1.06198921E-11
  -9.47999954       9.13232771E-12
  -9.35999966       5.94303599E-12
  -9.23999977       1.74032620E-12
  -9.11999989      -2.62601442E-12
  -9.00000000      -6.35902355E-12
  -8.88000011      -8.89195748E-12
  -8.76000023      -9.98069943E-12
  -8.64000034      -9.69351509E-12
  -8.52000046      -8.31515846E-12
  -8.39999962      -6.20891056E-12
  -8.27999973      -3.68969005E-12
  -8.15999985      -9.51380576E-13
  -8.03999996       1.93276211E-12
  -7.92000008       4.94645123E-12
  -7.80000019       8.03531113E-12
  -7.67999983       1.10204649E-11
  -7.55999994       1.35542714E-11
  -7.44000006       1.51351483E-11
  -7.32000017       1.51799927E-11
  -7.19999981       1.31389387E-11
  -7.07999992       8.63127105E-12
  -6.96000004       1.58096810E-12
  -6.84000015      -7.66840237E-12
  -6.71999979      -1.82809219E-11
  -6.59999990      -2.89223021E-11
  -6.48000002      -3.78463615E-11
  -6.36000013      -4.30919779E-11
  -6.23999977      -4.27880613E-11
  -6.11999989      -3.55317893E-11
  -6.00000000      -2.07710047E-11
  -5.88000011       9.01822508E-13
  -5.76000023       2.76347382E-11
  -5.63999987       5.64380730E-11
  -5.51999998       8.35404246E-11
  -5.40000010       1.04906847E-10
  -5.28000021       1.16792354E-10
  -5.15999985       1.16186352E-10
  -5.03999996       1.01035014E-10
  -4.92000008       7.02037456E-11
  -4.80000019       2.32347180E-11
  -4.67999983      -3.99669638E-11
  -4.55999994      -1.19356428E-10
  -4.44000006      -2.14757503E-10
  -4.32000017      -3.25628746E-10
  -4.19999981      -4.50681104E-10
  -4.07999992      -5.87539073E-10
  -3.96000004      -7.32664096E-10
  -3.83999991      -8.81694329E-10
  -3.72000003      -1.03020681E-09
  -3.59999990      -1.17473398E-09
  -3.48000002      -1.31372524E-09
  -3.35999990      -1.44811285E-09
  -3.24000001      -1.58123181E-09
  -3.11999989      -1.71805314E-09
  -3.00000000      -1.86393301E-09
  -2.88000011      -2.02327066E-09
  -2.75999999      -2.19852558E-09
  -2.64000010      -2.38993358E-09
  -2.51999998      -2.59601585E-09
  -2.40000010      -2.81467694E-09
  -2.27999997      -3.04446601E-09
  -2.16000009      -3.28550631E-09
  -2.03999996      -3.53972229E-09
  -1.91999996      -3.81026632E-09
  -1.79999995      -4.10036849E-09
  -1.67999995      -4.41206893E-09
  -1.55999994      -4.74535389E-09
  -1.44000006      -5.09809128E-09
  -1.32000005      -5.46685097E-09
  -1.20000005      -5.84838356E-09
  -1.08000004      -6.24127372E-09
 -0.959999979      -6.64721522E-09
 -0.839999974      -7.07147629E-09
 -0.720000029      -7.52239515E-09
 -0.600000024      -8.01007527E-09
 -0.479999989      -8.54468052E-09
 -0.360000014      -9.13483778E-09
 -0.239999995      -9.78658754E-09
 -0.119999997      -1.05030873E-08
  -1.11022302E-15  -1.12850493E-08
  0.119999997      -1.21316281E-08
  0.239999995      -1.30413991E-08
  0.360000014      -1.40130956E-08
  0.479999989      -1.50459201E-08
  0.600000024      -1.61394560E-08
  0.720000029      -1.72933863E-08
  0.839999974      -1.85073219E-08
  0.959999979      -1.97810035E-08
   1.08000004      -2.11149960E-08
   1.20000005      -2.25117827E-08
   1.32000005      -2.39769467E-08
   1.44000006      -2.55200678E-08
   1.55999994      -2.71549272E-08
   1.67999995      -2.88988335E-08
   1.79999995      -3.07711581E-08
   1.91999996      -3.27913945E-08
   2.03999996      -3.49773330E-08
   2.16000009      -3.73438418E-08
   2.27999997      -3.99026199E-08
   2.40000010      -4.26629363E-08
   2.51999998      -4.56329765E-08
   2.64000010      -4.88211747E-08
   2.75999999      -5.22368353E-08
   2.88000011      -5.58897177E-08
   3.00000000      -5.97884835E-08
   3.11999989      -6.39386002E-08
   3.24000001      -6.83405190E-08
   3.35999990      -7.29891241E-08
   3.48000002      -7.78749936E-08
   3.59999990      -8.29874409E-08
   3.72000003      -8.83188136E-08
   3.83999991      -9.38686568E-08
   3.96000004      -9.96465630E-08
   4.07999992      -1.05672640E-07
   4.19999981      -1.11975496E-07
   4.32000017      -1.18588261E-07
   4.44000006      -1.25544176E-07
   4.55999994      -1.32873126E-07
   4.67999983      -1.40600534E-07
   4.80000019      -1.48748555E-07
   4.92000008      -1.57339301E-07
   5.03999996      -1.66398237E-07
   5.15999985      -1.75956259E-07
   5.28000021      -1.86049050E-07
   5.40000010      -1.96713643E-07
   5.51999998      -2.07983220E-07
   5.63999987      -2.19881713E-07
   5.76000023      -2.32420660E-07
   5.88000011      -2.45599637E-07
   6.00000000      -2.59410427E-07
   6.11999989      -2.73844051E-07
   6.23999977      -2.88898150E-07
   6.36000013      -3.04582670E-07
   6.48000002      -3.20921629E-07
   6.59999990      -3.37950809E-07
   6.71999979      -3.55712018E-07
   6.84000015      -3.74246525E-07
   6.96000004      -3.93589744E-07
   7.07999992      -4.13769584E-07
   7.19999981      -4.34808527E-07
   7.32000017      -4.56728998E-07
   7.44000006      -4.79560015E-07
   7.55999994      -5.03342221E-07
   7.67999983      -5.28129419E-07
   7.80000019      -5.53986411E-07
   7.92000008      -5.80982260E-07
   8.03999996      -6.09182791E-07
   8.15999985      -6.38642177E-07
   8.27999973      -6.69397593E-07
   8.39999962      -7.01466774E-07
   8.52000046      -7.34849323E-07
   8.64000034      -7.69530686E-07
   8.76000023      -8.05488014E-07
   8.88000011      -8.42696238E-07
   9.00000000      -8.81134270E-07
   9.11999989      -9.20790569E-07
   9.23999977      -9.61667752E-07
   9.35999966      -1.00378588E-06
   9.47999954      -1.04718447E-06
   9.60000038      -1.09192183E-06
   9.72000027      -1.13807141E-06
   9.84000015      -1.18571506E-06
   9.96000004      -1.23493476E-06
   10.0799999      -1.28580280E-06
   10.1999998      -1.33837489E-06
   10.3199997      -1.39268445E-06
   10.4399996      -1.44874298E-06
   10.5600004      -1.50654398E-06
   10.6800003      -1.56606927E-06
   10.8000002      -1.62729782E-06
   10.9200001      -1.69021064E-06
   11.0400000      -1.75479454E-06
   11.1599998      -1.82104168E-06
   11.2799997      -1.88894558E-06
   11.3999996      -1.95849611E-06
   11.5200005      -2.02967612E-06
   11.6400003      -2.10245889E-06
   11.7600002      -2.17681099E-06
   11.8800001      -2.25269673E-06
   12.0000000      -2.33008495E-06
   12.1199999      -2.40895383E-06
   12.2399998      -2.48929382E-06
   12.3599997      -2.57110446E-06
   12.4799995      -2.65438962E-06
   12.6000004      -2.73914770E-06
   12.7200003      -2.82536234E-06
   12.8400002      -2.91299557E-06
   12.9600000      -3.00198576E-06
   13.0799999      -3.09224856E-06
   13.1999998      -3.18368461E-06
   13.3199997      -3.27618773E-06
   13.4399996      -3.36965536E-06
   13.5600004      -3.46399588E-06
   13.6800003      -3.55913176E-06
   13.8000002      -3.65499750E-06
   13.9200001      -3.75153309E-06
   14.0400000      -3.84867553E-06
   14.1599998      -3.94634662E-06
   14.2799997      -4.04444427E-06
   14.3999996      -4.14283386E-06
   14.5200005      -4.24134714E-06
   14.6400003      -4.33978357E-06
   14.7600002      -4.43791487E-06
   14.8800001      -4.53549910E-06
   15.0000000      -4.63229480E-06
   15.1199999      -4.72807278E-06
   15.2399998      -4.82262658E-06
   15.3599997      -4.91578021E-06
   15.4799995      -5.00738315E-06
   15.6000004      -5.09730035E-06
   15.7200003      -5.18539582E-06
   15.8400002      -5.27151133E-06
   15.9600000      -5.35545087E-06
   16.0799999      -5.43696842E-06
   16.2000008      -5.51576568E-06
   16.3199997      -5.59150476E-06
   16.4400005      -5.66382323E-06
   16.5599995      -5.73235411E-06
   16.6800003      -5.79674679E-06
   16.7999992      -5.85667249E-06
   16.9200001      -5.91182425E-06
   17.0400009      -5.96190557E-06
   17.1599998      -6.00660815E-06
   17.2800007      -6.04559546E-06
   17.3999996      -6.07848779E-06
   17.5200005      -6.10485904E-06
   17.6399994      -6.12424628E-06
   17.7600002      -6.13616749E-06
   17.8799992      -6.14014652E-06
   18.0000000      -6.13573275E-06
   18.1200008      -6.12251006E-06
   18.2399998      -6.10009647E-06
   18.3600006      -6.06812819E-06
   18.4799995      -6.02623504E-06
   18.6000004      -5.97401549E-06
   18.7199993      -5.91101752E-06
   18.8400002      -5.83673000E-06
   18.9599991      -5.75058812E-06
   19.0799999      -5.65199434E-06
   19.2000008      -5.54033750E-06
   19.3199997      -5.41502004E-06
   19.4400005      -5.27547218E-06
   19.5599995      -5.12115685E-06
   19.6800003      -4.95156110E-06
   19.7999992      -4.76618061E-06
   19.9200001      -4.56450198E-06
   20.0400009      -4.34598542E-06
   20.1599998      -4.11005703E-06
   20.2800007      -3.85610929E-06
   20.3999996      -3.58350599E-06
   20.5200005      -3.29159457E-06
   20.6399994      -2.97971678E-06
   20.7600002      -2.64721643E-06
   20.8799992      -2.29344209E-06
   21.0000000      -1.91774643E-06
   21.1200008      -1.51948143E-06
   21.2399998      -1.09799362E-06
   21.3600006      -6.52619235E-07
   21.4799995      -1.82683152E-07
   21.6000004       3.12501413E-07
   21.7199993       8.33628235E-07
   21.8400002       1.38139580E-06
   21.9599991       1.95650387E-06
   22.0799999       2.55965347E-06
   22.2000008       3.19154583E-06
   22.3199997       3.85288649E-06
   22.4400005       4.54438441E-06
   22.5599995       5.26675103E-06
   22.6800003       6.02069531E-06
   22.7999992       6.80691574E-06
   22.9200001       7.62609125E-06
   23.0400009       8.47887441E-06
   23.1599998       9.36589095E-06
   23.2800007       1.02877430E-05
   23.3999996       1.12450189E-05
   23.5200005       1.22383126E-05
   23.6399994       1.32682326E-05
   23.7600002       1.43354264E-05
   23.8799992       1.54405752E-05
   24.0000000       1.65843903E-05
   24.1200008       1.77676156E-05
   24.2399998       1.89909988E-05
   24.3600006       2.02552837E-05
   24.4799995       2.15611853E-05
   24.6000004       2.29093876E-05
   24.7199993       2.43005215E-05
   24.8400002       2.57351694E-05
   24.9599991       2.72138695E-05
   25.0799999       2.87371149E-05
   25.2000008       3.03053712E-05
   25.3199997       3.19190876E-05
   25.4400005       3.35787154E-05
   25.5599995       3.52847164E-05
   25.6800003       3.70375747E-05
   25.7999992       3.88377885E-05
   25.9200001       4.06858671E-05
   26.0400009       4.25823237E-05
   26.1599998       4.45276310E-05
   26.2800007       4.65222256E-05
   26.3999996       4.85664787E-05
   26.5200005       5.06606993E-05
   26.6399994       5.28051096E-05
   26.7600002       5.49999058E-05
   26.8799992       5.72452191E-05
   27.0000000       5.95411839E-05
   27.1200008       6.18879130E-05
   27.2399998       6.42855521E-05
   27.3600006       6.67342101E-05
   27.4799995       6.92340400E-05
   27.6000004       7.17851362E-05
   27.7199993       7.43875935E-05
   27.8400002       7.70414626E-05
   27.9599991       7.97467437E-05
   28.0799999       8.25033567E-05
   28.2000008       8.53111633E-05
   28.3199997       8.81699671E-05
   28.4400005       9.10794843E-05
   28.5599995       9.40393729E-05
   28.6800003       9.70492038E-05
   28.7999992       1.00108518E-04
   28.9200001       1.03216778E-04
   29.0400009       1.06373438E-04
   29.1599998       1.09577879E-04
   29.2800007       1.12829453E-04
   29.3999996       1.16127470E-04
   29.5200005       1.19471180E-04
   29.6399994       1.22859798E-04
   29.7600002       1.26292463E-04
   29.8799992       1.29768276E-04
   30.0000000       1.33286318E-04
   30.1200008       1.36845571E-04
   30.2399998       1.40444929E-04
   30.3600006       1.44083257E-04
   30.4799995       1.47759274E-04
   30.6000004       1.51471613E-04
   30.7199993       1.55218819E-04
   30.8400002       1.58999421E-04
   30.9599991       1.62811804E-04
   31.0799999       1.66654383E-04
   31.2000008       1.70525469E-04
   31.3199997       1.74423360E-04
   31.4400005       1.78346221E-04
   31.5599995       1.82292191E-04
   31.6800003       1.86259305E-04
   31.7999992       1.90245497E-04
   31.9200001       1.94248554E-04
   32.0400009       1.98266251E-04
   32.1599998       2.02296258E-04
   32.2799988       2.06336219E-04
   32.4000015       2.10383660E-04
   32.5200005       2.14436106E-04
   32.6399994       2.18490968E-04
   32.7599983       2.22545597E-04
   32.8800011       2.26597229E-04
   33.0000000       2.30643011E-04
   33.1199989       2.34679974E-04
   33.2400017       2.38705092E-04
   33.3600006       2.42715221E-04
   33.4799995       2.46707234E-04
   33.5999985       2.50677927E-04
   33.7200012       2.54624087E-04
   33.8400002       2.58542394E-04
   33.9599991       2.62429472E-04
   34.0800018       2.66281946E-04
   34.2000008       2.70096352E-04
   34.3199997       2.73869140E-04
   34.4399986       2.77596642E-04
   34.5600014       2.81275221E-04
   34.6800003       2.84901122E-04
   34.7999992       2.88470445E-04
   34.9199982       2.91979319E-04
   35.0400009       2.95423757E-04
   35.1599998       2.98799772E-04
   35.2799988       3.02103261E-04
   35.4000015       3.05330177E-04
   35.5200005       3.08476418E-04
   35.6399994       3.11537908E-04
   35.7599983       3.14510515E-04
   35.8800011       3.17390164E-04
   36.0000000       3.20172752E-04
   36.1199989       3.22854146E-04
   36.2400017       3.25430214E-04
   36.3600006       3.27896792E-04
   36.4799995       3.30249779E-04
   36.5999985       3.32485011E-04
   36.7200012       3.34598240E-04
   36.8400002       3.36585246E-04
   36.9599991       3.38441780E-04
   37.0800018       3.40163620E-04
   37.2000008       3.41746520E-04
   37.3199997       3.43186257E-04
   37.4399986       3.44478787E-04
   37.5600014       3.45620181E-04
   37.6800003       3.46606510E-04
   37.7999992       3.47434048E-04
   37.9199982       3.48099100E-04
   38.0400009       3.48598027E-04
   38.1599998       3.48927104E-04
   38.2799988       3.49082751E-04
   38.4000015       3.49061243E-04
   38.5200005       3.48859001E-04
   38.6399994       3.48472560E-04
   38.7599983       3.47898458E-04
   38.8800011       3.47133580E-04
   39.0000000       3.46174784E-04
   39.1199989       3.45019100E-04
   39.2400017       3.43663793E-04
   39.3600006       3.42106214E-04
   39.4799995       3.40343773E-04
   39.5999985       3.38374084E-04
   39.7200012       3.36194935E-04
   39.8400002       3.33804172E-04
   39.9599991       3.31199815E-04
   40.0800018       3.28380032E-04
   40.2000008       3.25343048E-04
   40.3199997       3.22087348E-04
   40.4399986       3.18611506E-04
   40.5600014       3.14914359E-04
   40.6800003       3.10994918E-04
   40.7999992       3.06852395E-04
   40.9199982       3.02486354E-04
   41.0400009       2.97896506E-04
   41.1599998       2.93082732E-04
   41.2799988       2.88045150E-04
   41.4000015       2.82784022E-04
   41.5200005       2.77299725E-04
   41.6399994       2.71592929E-04
   41.7599983       2.65664479E-04
   41.8800011       2.59515509E-04
   42.0000000       2.53147446E-04
   42.1199989       2.46561976E-04
   42.2400017       2.39760964E-04
   42.3600006       2.32746548E-04
   42.4799995       2.25521057E-04
   42.5999985       2.18087051E-04
   42.7200012       2.10447310E-04
   42.8400002       2.02604831E-04
   42.9599991       1.94562890E-04
   43.0800018       1.86325022E-04
   43.2000008       1.77894966E-04
   43.3199997       1.69276784E-04
   43.4399986       1.60474694E-04
   43.5600014       1.51493194E-04
   43.6800003       1.42337041E-04
   43.7999992       1.33011272E-04
   43.9199982       1.23521138E-04
   44.0400009       1.13872273E-04
   44.1599998       1.04070481E-04
   44.2799988       9.41217586E-05
   44.4000015       8.40322755E-05
   44.5200005       7.38083545E-05
   44.6399994       6.34564931E-05
   44.7599983       5.29833596E-05
   44.8800011       4.23958809E-05
   45.0000000       3.17012309E-05
   45.1199989       2.09068658E-05
   45.2400017       1.00204807E-05
   45.3600006      -9.50003823E-07
   45.4799995      -1.19964843E-05
   45.5999985      -2.31107169E-05
   45.7200012      -3.42843305E-05
   45.8400002      -4.55088557E-05
   45.9599991      -5.67756651E-05
   46.0800018      -6.80760277E-05
   46.2000008      -7.94010630E-05
   46.3199997      -9.07417561E-05
   46.4399986      -1.02088976E-04
   46.5600014      -1.13433525E-04
   46.6800003      -1.24766113E-04
   46.7999992      -1.36077389E-04
   46.9199982      -1.47357990E-04
   47.0400009      -1.58598443E-04
   47.1599998      -1.69789244E-04
   47.2799988      -1.80920790E-04
   47.4000015      -1.91983447E-04
   47.5200005      -2.02967465E-04
   47.6399994      -2.13863183E-04
   47.7599983      -2.24660893E-04
   47.8800011      -2.35351021E-04
   48.0000000      -2.45924050E-04
   48.1199989      -2.56370549E-04
   48.2400017      -2.66681163E-04
   48.3600006      -2.76846607E-04
   48.4799995      -2.86857627E-04
   48.5999985      -2.96705111E-04
   48.7200012      -3.06380010E-04
   48.8400002      -3.15873447E-04
   48.9599991      -3.25176748E-04
   49.0800018      -3.34281387E-04
   49.2000008      -3.43179039E-04
   49.3199997      -3.51861498E-04
   49.4399986      -3.60320730E-04
   49.5600014      -3.68548877E-04
   49.6800003      -3.76538228E-04
   49.7999992      -3.84281302E-04
   49.9199982      -3.91771056E-04
   50.0400009      -3.99000623E-04
   50.1599998      -4.05963539E-04
   50.2799988      -4.12653666E-04
   50.4000015      -4.19065123E-04
   50.5200005      -4.25192411E-04
   50.6399994      -4.31030116E-04
   50.7599983      -4.36573173E-04
   50.8800011      -4.41816723E-04
   51.0000000      -4.46756225E-04
   51.1199989      -4.51387576E-04
   51.2400017      -4.55706991E-04
   51.3600006      -4.59711242E-04
   51.4799995      -4.63397417E-04
   51.5999985      -4.66762955E-04
   51.7200012      -4.69805789E-04
   51.8400002      -4.72524116E-04
   51.9599991      -4.74916567E-04
   52.0800018      -4.76982037E-04
   52.2000008      -4.78719856E-04
   52.3199997      -4.80129762E-04
   52.4399986      -4.81211842E-04
   52.5600014      -4.81966650E-04
   52.6800003      -4.82395058E-04
   52.7999992      -4.82498435E-04
   52.9199982      -4.82278410E-04
   53.0400009      -4.81737137E-04
   53.1599998      -4.80877148E-04
   53.2799988      -4.79701412E-04
   53.4000015      -4.78213187E-04
   53.5200005      -4.76416200E-04
   53.6399994      -4.74314467E-04
   53.7599983      -4.71912412E-04
   53.8800011      -4.69214778E-04
   54.0000000      -4.66226717E-04
   54.1199989      -4.62953642E-04
   54.2400017      -4.59401344E-04
   54.3600006      -4.55575821E-04
   54.4799995      -4.51483589E-04
   54.5999985      -4.47131286E-04
   54.7200012      -4.42525983E-04
   54.8400002      -4.37675073E-04
   54.9599991      -4.32586297E-04
   55.0800018      -4.27267514E-04
   55.2000008      -4.21726872E-04
   55.3199997      -4.15972725E-04
   55.4399986      -4.10013658E-04
   55.5600014      -4.03858401E-04
   55.6800003      -3.97515949E-04
   55.7999992      -3.90995439E-04
   55.9199982      -3.84306215E-04
   56.0400009      -3.77457764E-04
   56.1599998      -3.70459631E-04
   56.2799988      -3.63321509E-04
   56.4000015      -3.56053089E-04
   56.5200005      -3.48664209E-04
   56.6399994      -3.41164821E-04
   56.7599983      -3.33564880E-04
   56.8800011      -3.25874455E-04
   57.0000000      -3.18103674E-04
   57.1199989      -3.10262694E-04
   57.2400017      -3.02361499E-04
   57.3600006      -2.94410158E-04
   57.4799995      -2.86418595E-04
   57.5999985      -2.78396736E-04
   57.7200012      -2.70354416E-04
   57.8400002      -2.62301473E-04
   57.9599991      -2.54247483E-04
   58.0800018      -2.46202049E-04
   58.2000008      -2.38174514E-04
   58.3199997      -2.30174075E-04
   58.4399986      -2.22209725E-04
   58.5600014      -2.14290281E-04
   58.6800003      -2.06424389E-04
   58.7999992      -1.98620561E-04
   58.9199982      -1.90887076E-04
   59.0400009      -1.83232027E-04
   59.1599998      -1.75663256E-04
   59.2799988      -1.68188330E-04
   59.4000015      -1.60814510E-04
   59.5200005      -1.53548812E-04
   59.6399994      -1.46397986E-04
   59.7599983      -1.39368494E-04
   59.8800011      -1.32466579E-04
   60.0000000      -1.25698163E-04
   60.1199989      -1.19068907E-04
   60.2400017      -1.12584086E-04
   60.3600006      -1.06248626E-04
   60.4799995      -1.00067133E-04
   60.5999985      -9.40438767E-05
   60.7200012      -8.81828164E-05
   60.8400002      -8.24876479E-05
   60.9599991      -7.69617327E-05
   61.0800018      -7.16081486E-05
   61.2000008      -6.64296167E-05
   61.3199997      -6.14285382E-05
   61.4399986      -5.66069575E-05
   61.5600014      -5.19666028E-05
   61.6800003      -4.75088636E-05
   61.7999992      -4.32348206E-05
   61.9199982      -3.91452377E-05
   62.0400009      -3.52405696E-05
   62.1599998      -3.15209472E-05
   62.2799988      -2.79861888E-05
   62.4000015      -2.46358140E-05
   62.5200005      -2.14690699E-05
   62.6399994      -1.84849378E-05
   62.7599983      -1.56821534E-05
   62.8800011      -1.30592016E-05
   63.0000000      -1.06143043E-05
   63.1199989      -8.34542152E-06
   63.2400017      -6.25024404E-06
   63.3600006      -4.32620755E-06
   63.4799995      -2.57050669E-06
   63.5999985      -9.80117306E-07
   63.7200012       4.48183698E-07
   63.8400002       1.71780141E-06
   63.9599991       2.83231225E-06
   64.0800018       3.79545577E-06
   64.1999969       4.61112768E-06
   64.3199997       5.28336386E-06
   64.4400024       5.81633049E-06
   64.5599976       6.21431491E-06
   64.6800003       6.48171090E-06
   64.8000031       6.62301636E-06
   64.9199982       6.64283243E-06
   65.0400009       6.54586165E-06
   65.1600037       6.33691070E-06
   65.2799988       6.02087903E-06
   65.4000015       5.60274657E-06
   65.5199966       5.08755238E-06
   65.6399994       4.48036690E-06
   65.7600021       3.78627146E-06
   65.8799973       3.01033378E-06
   66.0000000       2.15759565E-06
   66.1200027       1.23306381E-06
   66.2399979       2.41710637E-07
   66.3600006      -8.11523137E-07
   66.4800034      -1.92172956E-06
   66.5999985      -3.08403469E-06
   66.7200012      -4.29360989E-06
   66.8399963      -5.54568715E-06
   66.9599991      -6.83557482E-06
   67.0800018      -8.15866770E-06
   67.1999969      -9.51044967E-06
   67.3199997      -1.08864788E-05
   67.4400024      -1.22823867E-05
   67.5599976      -1.36938606E-05
   67.6800003      -1.51166569E-05
   67.8000031      -1.65466154E-05
   67.9199982      -1.79797044E-05
   68.0400009      -1.94120494E-05
   68.1600037      -2.08399651E-05
   68.2799988      -2.22599574E-05
   68.4000015      -2.36687047E-05
   68.5199966      -2.50630128E-05
   68.6399994      -2.64397968E-05
   68.7600021      -2.77960517E-05
   68.8799973      -2.91288761E-05
   69.0000000      -3.04354980E-05
   69.1200027      -3.17133090E-05
   69.2399979      -3.29599025E-05
   69.3600006      -3.41730702E-05
   69.4800034      -3.53507530E-05
   69.5999985      -3.64910302E-05
   69.7200012      -3.75920681E-05
   69.8399963      -3.86521097E-05
   69.9599991      -3.96694959E-05
   70.0800018      -4.06427171E-05
   70.1999969      -4.15704453E-05
   70.3199997      -4.24515638E-05
   70.4400024      -4.32851375E-05
   70.5599976      -4.40703807E-05
   70.6800003      -4.48066094E-05
   70.8000031      -4.54931942E-05
   70.9199982      -4.61295822E-05
   71.0400009      -4.67153259E-05
   71.1600037      -4.72501306E-05
   71.2799988      -4.77339017E-05
   71.4000015      -4.81667485E-05
   71.5199966      -4.85489691E-05
   71.6399994      -4.88809674E-05
   71.7600021      -4.91632054E-05
   71.8799973      -4.93961525E-05
   72.0000000      -4.95802778E-05
   72.1200027      -4.97160654E-05
   72.2399979      -4.98040608E-05
   72.3600006      -4.98449081E-05
   72.4800034      -4.98393674E-05
   72.5999985      -4.97883193E-05
   72.7200012      -4.96927350E-05