  -30.0000000       0.00000000    
  -29.8799992       0.00000000    
  -29.7600002       0.00000000    
  -29.6399994       0.00000000    
  -29.5200005       0.00000000    
  -29.3999996       0.00000000    
  -29.2800007       0.00000000    
  -29.1599998       0.00000000    
  -29.0400009       0.00000000    
  -28.9200001       0.00000000    
  -28.7999992       2.42424634E-43
  -28.6800003      -1.05166048E-40
  -28.5599995       4.78166476E-40
  -28.4400005       2.31724081E-38
  -28.3199997       2.28784709E-37
  -28.2000008       1.26320218E-36
  -28.0799999       4.42470631E-36
  -27.9599991       8.61856258E-36
  -27.8400002      -4.82701322E-36
  -27.7199993      -1.12226960E-34
  -27.6000004      -5.04603358E-34
  -27.4799995      -1.46878892E-33
  -27.3600006      -3.03430577E-33
  -27.2399998      -3.90004120E-33
  -27.1200008       4.58927183E-34
  -27.0000000       1.93277059E-32
  -26.8799992       6.42549662E-32
  -26.7600002       1.36355252E-31
  -26.6399994       1.98552586E-31
  -26.5200005       1.38862229E-31
  -26.3999996      -2.44824910E-31
  -26.2800007      -1.17675589E-30
  -26.1599998      -2.67802101E-30
  -26.0400009      -4.16166754E-30
  -25.9200001      -3.98750517E-30
  -25.7999992       6.14041385E-31
  -25.6800003       1.25738045E-29
  -25.5599995       3.23045408E-29
  -25.4400005       5.33136168E-29
  -25.3199997       5.77474987E-29
  -25.2000008       1.59419919E-29
  -25.0799999      -1.03838258E-28
  -24.9599991      -3.09821798E-28
  -24.8400002      -5.45854624E-28
  -24.7199993      -6.49583718E-28
  -24.6000004      -3.43514330E-28
  -24.4799995       6.90984568E-28
  -24.3600006       2.60996961E-27
  -24.2399998       5.06919283E-27
  -24.1200008       6.84205256E-27
  -24.0000000       5.61955119E-27
  -23.8799992      -1.64564532E-27
  -23.7600002      -1.74384113E-26
  -23.6399994      -4.11671901E-26
  -23.5200005      -6.56836158E-26
  -23.3999996      -7.40427865E-26
  -23.2800007      -3.90947447E-26
  -23.1599998       7.00978103E-26
  -23.0400009       2.70657831E-25
  -22.9200001       5.35306219E-25
  -22.7999992       7.54696917E-25
  -22.6800003       7.12400513E-25
  -22.5599995       1.08912183E-25
  -22.4400005      -1.32005321E-24
  -22.3199997      -3.56288397E-24
  -22.2000008      -6.00350167E-24
  -22.0799999      -7.15181770E-24
  -21.9599991      -4.70944833E-24
  -21.8400002       3.69280620E-24
  -21.7199993       1.88844686E-23
  -21.6000004       3.79084836E-23
  -21.4799995       5.20947428E-23
  -21.3600006       4.71539776E-23
  -21.2399998       7.22628932E-24
  -21.1200008      -7.61128027E-23
  -21.0000000      -1.91385254E-22
  -20.8799992      -2.96477127E-22
  -20.7600002      -3.18196803E-22
  -20.6399994      -1.71135573E-22
  -20.5200005       2.00266578E-22
  -20.3999996       7.64200634E-22
  -20.2800007       1.35185112E-21
  -20.1599998       1.65145670E-21
  -20.0400009       1.28122199E-21
  -19.9200001      -4.61393479E-23
  -19.7999992      -2.29934117E-21
  -19.6800003      -4.93206238E-21
  -19.5599995      -6.84029576E-21
  -19.4400005      -6.59088384E-21
  -19.3199997      -2.95933800E-21
  -19.2000008       4.32918827E-21
  -19.0799999       1.39262528E-20
  -18.9599991       2.26302301E-20
  -18.8400002       2.59391529E-20
  -18.7199993       1.94974354E-20
  -18.6000004       1.16168914E-21
  -18.4799995      -2.70045761E-20
  -18.3600006      -5.77486903E-20
  -18.2399998      -7.95027456E-20
  -18.1200008      -7.94363643E-20
  -18.0000000      -4.81720068E-20
  -17.8799992       1.52198712E-20
  -17.7600002       9.98431686E-20
  -17.6399994       1.82970206E-19
  -17.5200005       2.34292498E-19
  -17.3999996       2.23961012E-19
  -17.2800007       1.32595359E-19
  -17.1599998      -3.94086357E-20
  -17.0400009      -2.66008334E-19
  -16.9200001      -4.95185315E-19
  -16.7999992      -6.55313885E-19
  -16.6800003      -6.68499557E-19
  -16.5599995      -4.70373515E-19
  -16.4400005      -3.46860128E-20
  -16.3199997       6.01130246E-19
  -16.2000008       1.31669400E-18
  -16.0799999       1.90668523E-18
  -15.9600000       2.10860891E-18
  -15.8400002       1.66879491E-18
  -15.7200003       4.43225706E-19
  -15.6000004      -1.48905549E-18
  -15.4799995      -3.74233384E-18
  -15.3599997      -5.62404896E-18
  -15.2399998      -6.26295251E-18
  -15.1199999      -4.87515520E-18
  -15.0000000      -1.11955567E-18
  -14.8800001       4.56928408E-18
  -14.7600002       1.08236674E-17
  -14.6400003       1.55027692E-17
  -14.5200005       1.62333302E-17
  -14.3999996       1.12560943E-17
  -14.2799997       3.45273408E-19
  -14.1599998      -1.45470117E-17
  -14.0400000      -2.92774721E-17
  -13.9200001      -3.83487020E-17
  -13.8000002      -3.65449718E-17
  -13.6800003      -2.09832461E-17
  -13.5600004       7.08107467E-18
  -13.4399996       4.14504539E-17
  -13.3199997       7.17719074E-17
  -13.1999998       8.60672759E-17
  -13.0799999       7.45586061E-17
  -12.9600000       3.37549876E-17
  -12.8400002      -3.05857410E-17
  -12.7200003      -1.02952408E-16
  -12.6000004      -1.60833068E-16
  -12.4799995      -1.80595604E-16
  -12.3599997      -1.45266799E-16
  -12.2399998      -5.20351431E-17
  -12.1199999       8.31404263E-17
  -12.0000000       2.26115683E-16
  -11.8800001       3.31471547E-16
  -11.7600002       3.55032272E-16
  -11.6400003       2.69167165E-16
  -11.5200005       7.63278726E-17
  -11.3999996      -1.84365205E-16
  -11.2799997      -4.41664207E-16
  -11.1599998      -6.09234165E-16
  -11.0400000      -6.12407362E-16
  -10.9200001      -4.17482767E-16
  -10.8000002      -5.33881988E-17
  -10.6800003       3.84506530E-16
  -10.5600004       7.54687086E-16
  -10.4399996       9.12540675E-16
  -10.3199997       7.65377330E-16
  -10.1999998       3.20758328E-16
  -10.0799999      -2.93183911E-16
  -9.96000004      -8.51393261E-16
  -9.84000015      -1.10186376E-15
  -9.72000027      -8.65668466E-16
  -9.60000038      -1.33485272E-16
  -9.47999954       8.83136086E-16
  -9.35999966       1.78037262E-15
  -9.23999977       2.08134545E-15
  -9.11999989       1.42141647E-15
  -9.00000000      -2.59781140E-16
  -8.88000011      -2.59828902E-15
  -8.76000023      -4.82791458E-15
  -8.64000034      -5.97429871E-15
  -8.52000046      -5.18744492E-15
  -8.39999962      -2.11389206E-15
  -8.27999973       2.83073519E-15
  -8.15999985       8.42060694E-15
  -8.03999996       1.28786091E-14
  -7.92000008       1.43992060E-14
  -7.80000019       1.17874935E-14
  -7.67999983       4.99334520E-15
  -7.55999994      -4.67831840E-15
  -7.44000006      -1.48089396E-14
  -7.32000017      -2.25308545E-14
  -7.19999981      -2.54179205E-14
  -7.07999992      -2.22944950E-14
  -6.96000004      -1.36555518E-14
  -6.84000015      -1.51796054E-15
  -6.71999979       1.12616402E-14
  -6.59999990       2.19454361E-14
  -6.48000002       2.87616712E-14
  -6.36000013       3.12809979E-14
  -6.23999977       3.01566769E-14
  -6.11999989       2.63554691E-14
  -6.00000000       2.02721124E-14
  -5.88000011       1.12315739E-14
  -5.76000023      -2.23924849E-15
  -5.63999987      -2.13235615E-14
  -5.51999998      -4.53913809E-14
  -5.40000010      -7.07547559E-14
  -5.28000021      -9.04782231E-14
  -5.15999985      -9.57312910E-14
  -5.03999996      -7.85857992E-14
  -4.92000008      -3.54866622E-14
  -4.80000019       2.98658599E-14
  -4.67999983       1.05543971E-13
  -4.55999994       1.73178976E-13
  -4.44000006       2.12451232E-13
  -4.32000017       2.07186305E-13
  -4.19999981       1.51170959E-13
  -4.07999992       5.16099750E-14
  -3.96000004      -7.12985037E-14
  -3.83999991      -1.89000969E-13
  -3.72000003      -2.72325484E-13
  -3.59999990      -3.00004948E-13
  -3.48000002      -2.65195797E-13
  -3.35999990      -1.77684216E-13
  -3.24000001      -6.08221495E-14
  -3.11999989       5.59679527E-14
  -3.00000000       1.46663199E-13
  -2.88000011       1.96793929E-13
  -2.75999999       2.07310677E-13
  -2.64000010       1.92630146E-13
  -2.51999998       1.73433953E-13
  -2.40000010       1.66828804E-13
  -2.27999997       1.77667451E-13
  -2.16000009       1.94654866E-13
  -2.03999996       1.93272685E-13
  -1.91999996       1.45038007E-13
  -1.79999995       3.00563577E-14
  -1.67999995      -1.51779075E-13
  -1.55999994      -3.75535296E-13
  -1.44000006      -5.94676706E-13
  -1.32000005      -7.52843046E-13
  -1.20000005      -8.00389160E-13
  -1.08000004      -7.10001882E-13
 -0.959999979      -4.85658768E-13
 -0.839999974      -1.61411195E-13
 -0.720000029       2.09744114E-13
 -0.600000024       5.72678786E-13
 -0.479999989       8.85891024E-13
 -0.360000014       1.12957582E-12
 -0.239999995       1.30233281E-12
 -0.119999997       1.40771802E-12
  -1.11022302E-15   1.43676846E-12
  0.119999997       1.35552106E-12
  0.239999995       1.10582214E-12
  0.360000014       6.23178267E-13
  0.479999989      -1.31682615E-13
  0.600000024      -1.13792200E-12
  0.720000029      -2.29083289E-12
  0.839999974      -3.40255320E-12
  0.959999979      -4.23382249E-12
   1.08000004      -4.55254758E-12
   1.20000005      -4.20368905E-12
   1.32000005      -3.16748992E-12
   1.44000006      -1.58293246E-12
   1.55999994       2.78238912E-13
   1.67999995       2.08613985E-12
   1.79999995       3.55744557E-12
   1.91999996       4.55751062E-12
   2.03999996       5.16254964E-12
   2.16000009       5.65231716E-12
   2.27999997       6.42293770E-12
   2.40000010       7.83505465E-12
   2.51999998       1.00360475E-11
   2.64000010       1.28084904E-11
   2.75999999       1.54944044E-11
   2.88000011       1.70258391E-11
   3.00000000       1.60617891E-11
   3.11999989       1.11993513E-11
   3.24000001       1.20390449E-12
   3.35999990      -1.48024908E-11
   3.48000002      -3.72409430E-11
   3.59999990      -6.60806895E-11
   3.72000003      -1.00931548E-10
   3.83999991      -1.41179249E-10
   3.96000004      -1.86109642E-10
   4.07999992      -2.34979619E-10
   4.19999981      -2.87020352E-10
   4.32000017      -3.41392026E-10
   4.44000006      -3.97134436E-10
   4.55999994      -4.53163868E-10
   4.67999983      -5.08350972E-10
   4.80000019      -5.61681146E-10
   4.92000008      -6.12462026E-10
   5.03999996      -6.60516808E-10
   5.15999985      -7.06296466E-10
   5.28000021      -7.50863538E-10
   5.40000010      -7.95742361E-10
   5.51999998      -8.42668824E-10
   5.63999987      -8.93310315E-10
   5.76000023      -9.49031853E-10
   5.88000011      -1.01076902E-09
   6.00000000      -1.07902987E-09
   6.11999989      -1.15400678E-09
   6.23999977      -1.23574184E-09
   6.36000013      -1.32428546E-09
   6.48000002      -1.41979617E-09
   6.59999990      -1.52256274E-09
   6.71999979      -1.63296865E-09
   6.84000015      -1.75144110E-09
   6.96000004      -1.87842675E-09
   7.07999992      -2.01442241E-09
   7.19999981      -2.16004636E-09
   7.32000017      -2.31611441E-09
   7.44000006      -2.48366083E-09
   7.55999994      -2.66386668E-09
   7.67999983      -2.85788992E-09
   7.80000019      -3.06664161E-09
   7.92000008      -3.29059047E-09
   8.03999996      -3.52968765E-09
   8.15999985      -3.78347353E-09
   8.27999973      -4.05136946E-09
   8.39999962      -4.33308811E-09
   8.52000046      -4.62902916E-09
   8.64000034      -4.94052665E-09
   8.76000023      -5.26984190E-09
   8.88000011      -5.61987967E-09
   9.00000000      -5.99370864E-09
   9.11999989      -6.39404263E-09
   9.23999977      -6.82287737E-09
   9.35999966      -7.28141858E-09
   9.47999954      -7.77036036E-09
   9.60000038      -8.29042524E-09
   9.72000027      -8.84298146E-09
   9.84000015      -9.43050171E-09
   9.96000004      -1.00566746E-08
   10.0799999      -1.07260885E-08
   10.1999998      -1.14435679E-08
   10.3199997      -1.22134001E-08
   10.4399996      -1.30387079E-08
   10.5600004      -1.39212499E-08
   10.6800003      -1.48617119E-08
   10.8000002      -1.58604578E-08
   10.9200001      -1.69184435E-08
   11.0400000      -1.80379747E-08
   11.1599998      -1.92229912E-08
   11.2799997      -2.04787405E-08
   11.3999996      -2.18109033E-08
   11.5200005      -2.32244446E-08
   11.6400003      -2.47226364E-08
   11.7600002      -2.63065889E-08
   11.8800001      -2.79755454E-08
   12.0000000      -2.97278966E-08
   12.1199999      -3.15626387E-08
   12.2399998      -3.34808128E-08
   12.3599997      -3.54864724E-08
   12.4799995      -3.75868332E-08
   12.6000004      -3.97916118E-08
   12.7200003      -4.21116795E-08
   12.8400002      -4.45575346E-08
   12.9600000      -4.71379948E-08
   13.0799999      -4.98595334E-08
   13.1999998      -5.27263673E-08
   13.3199997      -5.57412392E-08
   13.4399996      -5.89064975E-08
   13.5600004      -6.22252401E-08
   13.6800003      -6.57019683E-08
   13.8000002      -6.93428746E-08
   13.9200001      -7.31554977E-08
   14.0400000      -7.71482078E-08
   14.1599998      -8.13296097E-08
   14.2799997      -8.57081162E-08
   14.3999996      -9.02918629E-08
   14.5200005      -9.50888150E-08
   14.6400003      -1.00106909E-07
   14.7600002      -1.05354189E-07
   14.8800001      -1.10838755E-07
   15.0000000      -1.16568479E-07
   15.1199999      -1.22550674E-07
   15.2399998      -1.28791854E-07
   15.3599997      -1.35297654E-07
   15.4799995      -1.42073063E-07
   15.6000004      -1.49122855E-07
   15.7200003      -1.56452145E-07
   15.8400002      -1.64067032E-07
   15.9600000      -1.71975046E-07
   16.0799999      -1.80185381E-07
   16.2000008      -1.88709080E-07
   16.3199997      -1.97558904E-07
   16.4400005      -2.06749164E-07
   16.5599995      -2.16295433E-07
   16.6800003      -2.26213913E-07
   16.7999992      -2.36520648E-07
   16.9200001      -2.47230219E-07
   17.0400009      -2.58354561E-07
   17.1599998      -2.69901790E-07
   17.2800007      -2.81875572E-07
   17.3999996      -2.94275026E-07
   17.5200005      -3.07095974E-07
   17.6399994      -3.20332788E-07
   17.7600002      -3.33981092E-07
   17.8799992      -3.48040118E-07
   18.0000000      -3.62514584E-07
   18.1200008      -3.77415148E-07
   18.2399998      -3.92757443E-07
   18.3600006      -4.08559856E-07
   18.4799995      -4.24840380E-07
   18.6000004      -4.41613736E-07
   18.7199993      -4.58889417E-07
   18.8400002      -4.76671090E-07
   18.9599991      -4.94957590E-07
   19.0799999      -5.13745135E-07
   19.2000008      -5.33030232E-07
   19.3199997      -5.52811912E-07
   19.4400005      -5.73093075E-07
   19.5599995      -5.93880145E-07
   19.6800003      -6.15181307E-07
   19.7999992      -6.37004007E-07
   19.9200001      -6.59352224E-07
   20.0400009      -6.82225107E-07
   20.1599998      -7.05616856E-07
   20.2800007      -7.29518604E-07
   20.3999996      -7.53920403E-07
   20.5200005      -7.78814524E-07
   20.6399994      -8.04196588E-07
   20.7600002      -8.30065801E-07
   20.8799992      -8.56423469E-07
   21.0000000      -8.83270673E-07
   21.1200008      -9.10605252E-07
   21.2399998      -9.38420385E-07
   21.3600006      -9.66703510E-07
   21.4799995      -9.95437517E-07
   21.6000004      -1.02460297E-06
   21.7199993      -1.05417973E-06
   21.8400002      -1.08414906E-06
   21.9599991      -1.11449390E-06
   22.0799999      -1.14519776E-06
   22.2000008      -1.17624404E-06
   22.3199997      -1.20761467E-06
   22.4400005      -1.23929010E-06
   22.5599995      -1.27125077E-06
   22.6800003      -1.30347883E-06
   22.7999992      -1.33595938E-06
   22.9200001      -1.36868141E-06
   23.0400009      -1.40163581E-06
   23.1599998      -1.43481350E-06
   23.2800007      -1.46820264E-06
   23.3999996      -1.50178460E-06
   23.5200005      -1.53553412E-06
   23.6399994      -1.56941849E-06
   23.7600002      -1.60340107E-06
   23.8799992      -1.63744403E-06
   24.0000000      -1.67151109E-06
   24.1200008      -1.70556939E-06
   24.2399998      -1.73958870E-06
   24.3600006      -1.77353866E-06
   24.4799995      -1.80738755E-06
   24.6000004      -1.84110036E-06
   24.7199993      -1.87463934E-06
   24.8400002      -1.90796572E-06
   24.9599991      -1.94104382E-06
   25.0799999      -1.97384497E-06
   25.2000008      -2.00634986E-06
   25.3199997      -2.03854734E-06
   25.4400005      -2.07043286E-06
   25.5599995      -2.10200187E-06
   25.6800003      -2.13324370E-06
   25.7999992      -2.16413559E-06
   25.9200001      -2.19464368E-06
   26.0400009      -2.22472318E-06
   26.1599998      -2.25432632E-06
   26.2800007      -2.28340900E-06
   26.3999996      -2.31193621E-06
   26.5200005      -2.33988862E-06
   26.6399994      -2.36726078E-06
   26.7600002      -2.39405881E-06
   26.8799992      -2.42029455E-06
   27.0000000      -2.44597868E-06
   27.1200008      -2.47111643E-06
   27.2399998      -2.49570667E-06
   27.3600006      -2.51974166E-06
   27.4799995      -2.54321208E-06
   27.6000004      -2.56611156E-06
   27.7199993      -2.58843852E-06
   27.8400002      -2.61019886E-06
   27.9599991      -2.63140350E-06
   28.0799999      -2.65206518E-06
   28.2000008      -2.67219798E-06
   28.3199997      -2.69181396E-06
   28.4400005      -2.71092517E-06
   28.5599995      -2.72954549E-06
   28.6800003      -2.74769241E-06
   28.7999992      -2.76539208E-06
   28.9200001      -2.78268021E-06
   29.0400009      -2.79960614E-06
   29.1599998      -2.81622988E-06
   29.2800007      -2.83262398E-06
   29.3999996      -2.84886914E-06
   29.5200005      -2.86505451E-06
   29.6399994      -2.88127535E-06
   29.7600002      -2.89763193E-06
   29.8799992      -2.91423021E-06
   30.0000000      -2.93118319E-06
   30.1200008      -2.94860547E-06
   30.2399998      -2.96661483E-06
   30.3600006      -2.98532632E-06
   30.4799995      -3.00485181E-06
   30.6000004      -3.02530043E-06
   30.7199993      -3.04678065E-06
   30.8400002      -3.06940456E-06
   30.9599991      -3.09329334E-06
   31.0799999      -3.11858389E-06
   31.2000008      -3.14543149E-06
   31.3199997      -3.17401077E-06
   31.4400005      -3.20451295E-06
   31.5599995      -3.23714153E-06
   31.6800003      -3.27210705E-06
   31.7999992      -3.30962234E-06
   31.9200001      -3.34989909E-06
   32.0400009      -3.39314965E-06
   32.1599998      -3.43958936E-06
   32.2799988      -3.48944263E-06
   32.4000015      -3.54294548E-06
   32.5200005      -3.60035006E-06
   32.6399994      -3.66192194E-06
   32.7599983      -3.72793829E-06
   32.8800011      -3.79868288E-06
   33.0000000      -3.87444015E-06
   33.1199989      -3.95549523E-06
   33.2400017      -4.04213097E-06
   33.3600006      -4.13462976E-06
   33.4799995      -4.23327765E-06
   33.5999985      -4.33836794E-06
   33.7200012      -4.45020669E-06
   33.8400002      -4.56911312E-06
   33.9599991      -4.69542283E-06
   34.0800018      -4.82948553E-06
   34.2000008      -4.97166047E-06
   34.3199997      -5.12231281E-06
   34.4399986      -5.28181045E-06
   34.5600014      -5.45052035E-06
   34.6800003      -5.62880496E-06
   34.7999992      -5.81702398E-06
   34.9199982      -6.01553666E-06
   35.0400009      -6.22470816E-06
   35.1599998      -6.44491229E-06
   35.2799988      -6.67653649E-06
   35.4000015      -6.91998184E-06
   35.5200005      -7.17566309E-06
   35.6399994      -7.44400404E-06
   35.7599983      -7.72543626E-06
   35.8800011      -8.02039176E-06
   36.0000000      -8.32930345E-06
   36.1199989      -8.65260699E-06
   36.2400017      -8.99073257E-06
   36.3600006      -9.34411582E-06
   36.4799995      -9.71318968E-06
   36.5999985      -1.00983852E-05
   36.7200012      -1.05001354E-05
   36.8400002      -1.09188668E-05
   36.9599991      -1.13550004E-05
   37.0800018      -1.18089556E-05
   37.2000008      -1.22811443E-05
   37.3199997      -1.27719850E-05
   37.4399986      -1.32818968E-05
   37.5600014      -1.38113146E-05
   37.6800003      -1.43606794E-05
   37.7999992      -1.49304478E-05
   37.9199982      -1.55210837E-05
   38.0400009      -1.61330572E-05
   38.1599998      -1.67668295E-05
   38.2799988      -1.74228499E-05
   38.4000015      -1.81015494E-05
   38.5200005      -1.88033337E-05
   38.6399994      -1.95285938E-05
   38.7599983      -2.02776992E-05
   38.8800011      -2.10510116E-05
   39.0000000      -2.18488894E-05
   39.1199989      -2.26716875E-05
   39.2400017      -2.35197640E-05
   39.3600006      -2.43934664E-05
   39.4799995      -2.52931313E-05
   39.5999985      -2.62190806E-05
   39.7200012      -2.71716071E-05
   39.8400002      -2.81509820E-05
   39.9599991      -2.91574524E-05
   40.0800018      -3.01912532E-05
   40.2000008      -3.12526063E-05
   40.3199997      -3.23417298E-05
   40.4399986      -3.34588403E-05
   40.5600014      -3.46041525E-05
   40.6800003      -3.57778663E-05
   40.7999992      -3.69801637E-05
   40.9199982      -3.82112084E-05
   41.0400009      -3.94711351E-05
   41.1599998      -4.07600564E-05
   41.2799988      -4.20780379E-05
   41.4000015      -4.34251233E-05
   41.5200005      -4.48013307E-05
   41.6399994      -4.62066564E-05
   41.7599983      -4.76410678E-05
   41.8800011      -4.91045212E-05
   42.0000000      -5.05969292E-05
   42.1199989      -5.21181973E-05
   42.2400017      -5.36682019E-05
   42.3600006      -5.52467791E-05
   42.4799995      -5.68537362E-05
   42.5999985      -5.84888403E-05
   42.7200012      -6.01518259E-05
   42.8400002      -6.18423874E-05
   42.9599991      -6.35602046E-05
   43.0800018      -6.53048992E-05
   43.2000008      -6.70760637E-05
   43.3199997      -6.88732543E-05
   43.4399986      -7.06959909E-05
   43.5600014      -7.25437203E-05
   43.6800003      -7.44158751E-05
   43.7999992      -7.63118223E-05
   43.9199982      -7.82309071E-05
   44.0400009      -8.01724236E-05
   44.1599998      -8.21356443E-05
   44.2799988      -8.41197834E-05
   44.4000015      -8.61240042E-05
   44.5200005      -8.81474480E-05
   44.6399994      -9.01892126E-05
   44.7599983      -9.22483232E-05
   44.8800011      -9.43238047E-05
   45.0000000      -9.64146020E-05
   45.1199989      -9.85196384E-05
   45.2400017      -1.00637764E-04
   45.3600006      -1.02767786E-04
   45.4799995      -1.04908446E-04
   45.5999985      -1.07058419E-04
   45.7200012      -1.09216322E-04
   45.8400002      -1.11380716E-04
   45.9599991      -1.13550115E-04
   46.0800018      -1.15723007E-04
   46.2000008      -1.17897835E-04
   46.3199997      -1.20073011E-04
   46.4399986      -1.22246915E-04
   46.5600014      -1.24417886E-04
   46.6800003      -1.26584186E-04
   46.7999992      -1.28744039E-04
   46.9199982      -1.30895613E-04
   47.0400009      -1.33036985E-04
   47.1599998      -1.35166221E-04
   47.2799988      -1.37281269E-04
   47.4000015      -1.39380092E-04
   47.5200005      -1.41460565E-04
   47.6399994      -1.43520505E-04
   47.7599983      -1.45557759E-04
   47.8800011      -1.47570070E-04
   48.0000000      -1.49555184E-04
   48.1199989      -1.51510802E-04
   48.2400017      -1.53434579E-04
   48.3600006      -1.55324131E-04
   48.4799995      -1.57177099E-04
   48.5999985      -1.58990981E-04
   48.7200012      -1.60763331E-04
   48.8400002      -1.62491546E-04
   48.9599991      -1.64173092E-04
   49.0800018      -1.65805352E-04
   49.2000008      -1.67385690E-04
   49.3199997      -1.68911414E-04
   49.4399986      -1.70379833E-04
   49.5600014      -1.71788241E-04
   49.6800003      -1.73133900E-04
   49.7999992      -1.74414075E-04
   49.9199982      -1.75625973E-04
   50.0400009      -1.76766829E-04
   50.1599998      -1.77833805E-04
   50.2799988      -1.78824077E-04
   50.4000015      -1.79734852E-04
   50.5200005      -1.80563293E-04
   50.6399994      -1.81306576E-04
   50.7599983      -1.81961906E-04
   50.8800011      -1.82526477E-04
   51.0000000      -1.82997494E-04
   51.1199989      -1.83372147E-04
   51.2400017      -1.83647644E-04
   51.3600006      -1.83821146E-04
   51.4799995      -1.83889890E-04
   51.5999985      -1.83851094E-04
   51.7200012      -1.83702025E-04
   51.8400002      -1.83439959E-04
   51.9599991      -1.83062220E-04
   52.0800018      -1.82566175E-04
   52.2000008      -1.81949217E-04
   52.3199997      -1.81208801E-04
   52.4399986      -1.80342395E-04
   52.5600014      -1.79347509E-04
   52.6800003      -1.78221744E-04
   52.7999992      -1.76962712E-04
   52.9199982      -1.75568101E-04
   53.0400009      -1.74035638E-04
   53.1599998      -1.72363129E-04
   53.2799988      -1.70548403E-04
   53.4000015      -1.68589409E-04
   53.5200005      -1.66484111E-04
   53.6399994      -1.64230572E-04
   53.7599983      -1.61826945E-04
   53.8800011      -1.59271498E-04
   54.0000000      -1.56562572E-04
   54.1199989      -1.53698638E-04
   54.2400017      -1.50678257E-04
   54.3600006      -1.47499988E-04
   54.4799995      -1.44162535E-04
   54.5999985      -1.40664662E-04
   54.7200012      -1.37005220E-04
   54.8400002      -1.33183188E-04
   54.9599991      -1.29197695E-04
   55.0800018      -1.25047998E-04
   55.2000008      -1.20733508E-04
   55.3199997      -1.16253752E-04
   55.4399986      -1.11608380E-04
   55.5600014      -1.06797175E-04
   55.6800003      -1.01820042E-04
   55.7999992      -9.66769949E-05
   55.9199982      -9.13682015E-05
   56.0400009      -8.58939820E-05
   56.1599998      -8.02547729E-05
   56.2799988      -7.44511999E-05
   56.4000015      -6.84840197E-05
   56.5200005      -6.23541418E-05
   56.6399994      -5.60626249E-05
   56.7599983      -4.96107023E-05
   56.8800011      -4.29997635E-05
   57.0000000      -3.62313513E-05
   57.1199989      -2.93071789E-05
   57.2400017      -2.22291219E-05
   57.3600006      -1.49992193E-05
   57.4799995      -7.61969068E-06
   57.5999985      -9.29226616E-08
   57.7200012       7.57853104E-06
   57.8400002       1.53919445E-05
   57.9599991       2.33444262E-05
   58.0800018       3.14329118E-05
   58.2000008       3.96541545E-05
   58.3199997       4.80047311E-05
   58.4399986       5.64810180E-05
   58.5600014       6.50792354E-05
   58.6800003       7.37954324E-05
   58.7999992       8.26254764E-05
   58.9199982       9.15650890E-05
   59.0400009       1.00609825E-04
   59.1599998       1.09755070E-04
   59.2799988       1.18996024E-04
   59.4000015       1.28327738E-04
   59.5200005       1.37745010E-04
   59.6399994       1.47242521E-04
   59.7599983       1.56814727E-04
   59.8800011       1.66455953E-04
   60.0000000       1.76160407E-04
   60.1199989       1.85922123E-04
   60.2400017       1.95735047E-04
   60.3600006       2.05592951E-04
   60.4799995       2.15489476E-04
   60.5999985       2.25418044E-04
   60.7200012       2.35371932E-04
   60.8400002       2.45344272E-04
   60.9599991       2.55328079E-04
   61.0800018       2.65316194E-04
   61.2000008       2.75301398E-04
   61.3199997       2.85276416E-04
   61.4399986       2.95233738E-04
   61.5600014       3.05165944E-04
   61.6800003       3.15065408E-04
   61.7999992       3.24924418E-04
   61.9199982       3.34735261E-04
   62.0400009       3.44490109E-04
   62.1599998       3.54181015E-04
   62.2799988       3.63800005E-04
   62.4000015       3.73339019E-04
   62.5200005       3.82789905E-04
   62.6399994       3.92144546E-04
   62.7599983       4.01394733E-04
   62.8800011       4.10532375E-04
   63.0000000       4.19549207E-04
   63.1199989       4.28437052E-04
   63.2400017       4.37187729E-04
   63.3600006       4.45793004E-04
   63.4799995       4.54244728E-04
   63.5999985       4.62534896E-04
   63.7200012       4.70655446E-04
   63.8400002       4.78598435E-04
   63.9599991       4.86356003E-04
   64.0800018       4.93920408E-04
   64.1999969       5.01283852E-04
   64.3199997       5.08438796E-04
   64.4400024       5.15377498E-04
   64.5599976       5.22092567E-04
   64.6800003       5.28576667E-04
   64.8000031       5.34822699E-04
   64.9199982       5.40823676E-04
   65.0400009       5.46572846E-04
   65.1600037       5.52063575E-04
   65.2799988       5.57289517E-04
   65.4000015       5.62244386E-04
   65.5199966       5.66922128E-04
   65.6399994       5.71316865E-04
   65.7600021       5.75423066E-04
   65.8799973       5.79235435E-04
   66.0000000       5.82748966E-04
   66.1200027       5.85958944E-04
   66.2399979       5.88860770E-04
   66.3600006       5.91450196E-04
   66.4800034       5.93723031E-04
   66.5999985       5.95675549E-04
   66.7200012       5.97304257E-04
   66.8399963       5.98606188E-04
   66.9599991       5.99578663E-04
   67.0800018       6.00219297E-04
   67.1999969       6.00525993E-04
   67.3199997       6.00497180E-04
   67.4400024       6.00131112E-04
   67.5599976       5.99426858E-04
   67.6800003       5.98383602E-04
   67.8000031       5.97001053E-04
   67.9199982       5.95279271E-04
   68.0400009       5.93218952E-04
   68.1600037       5.90820797E-04
   68.2799988       5.88086259E-04
   68.4000015       5.85016795E-04
   68.5199966       5.81614382E-04
   68.6399994       5.77881234E-04
   68.7600021       5.73819969E-04
   68.8799973       5.69433847E-04
   69.0000000       5.64726361E-04
   69.1200027       5.59701584E-04
   69.2399979       5.54363884E-04
   69.3600006       5.48717915E-04
   69.4800034       5.42768626E-04
   69.5999985       5.36521373E-04
   69.7200012       5.29981800E-04
   69.8399963       5.23156079E-04
   69.9599991       5.16050670E-04
   70.0800018       5.08672383E-04
   70.1999969       5.01028553E-04
   70.3199997       4.93126689E-04
   70.4400024       4.84974822E-04
   70.5599976       4.76581015E-04
   70.6800003       4.67953796E-04
   70.8000031       4.59101924E-04
   70.9199982       4.50034422E-04
   71.0400009       4.40760516E-04
   71.1600037       4.31289955E-04
   71.2799988       4.21632576E-04
   71.4000015       4.11798537E-04
   71.5199966       4.01798199E-04
   71.6399994       3.91642097E-04
   71.7600021       3.81341000E-04
   71.8799973       3.70905676E-04
   72.0000000       3.60347214E-04
   72.1200027       3.49676789E-04
   72.2399979       3.38905782E-04
   72.3600006       3.28045688E-04
   72.4800034       3.17108148E-04
   72.5999985       3.06104921E-04
   72.7200012       2.95047736E-04