  -30.0000000       0.00000000    
  -29.8799992       0.00000000    
  -29.7600002       0.00000000    
  -29.6399994       0.00000000    
  -29.5200005       0.00000000    
  -29.3999996      -1.40129846E-44
  -29.2800007       9.75023471E-42
  -29.1599998       1.05496755E-40
  -29.0400009       6.02088905E-40
  -28.9200001       2.26008283E-39
  -28.7999992       5.51153948E-39
  -28.6800003       5.33360120E-39
  -28.5599995      -2.35315903E-38
  -28.4400005      -1.50179455E-37
  -28.3199997      -4.93546736E-37
  -28.2000008      -1.14024378E-36
  -28.0799999      -1.88011690E-36
  -27.9599991      -1.74759057E-36
  -27.8400002       1.37809879E-36
  -27.7199993       1.04675103E-35
  -27.6000004       2.74657498E-35
  -27.4799995       4.94388243E-35
  -27.3600006       6.38219677E-35
  -27.2399998       4.60561327E-35
  -27.1200008      -3.55078301E-35
  -27.0000000      -2.03572066E-34
  -26.8799992      -4.45910512E-34
  -26.7600002      -6.88975560E-34
  -26.6399994      -7.88439969E-34
  -26.5200005      -5.55421494E-34
  -26.3999996       1.72755035E-34
  -26.2800007       1.42951345E-33
  -26.1599998       3.02095271E-33
  -26.0400009       4.48576469E-33
  -25.9200001       5.15958707E-33
  -25.7999992       4.35607386E-33
  -25.6800003       1.62382496E-33
  -25.5599995      -3.01157024E-33
  -25.4400005      -8.92963843E-33
  -25.3199997      -1.49973419E-32
  -25.2000008      -1.98439389E-32
  -25.0799999      -2.22157662E-32
  -24.9599991      -2.12245996E-32
  -24.8400002      -1.63163832E-32
  -24.7199993      -6.91784891E-33
  -24.6000004       8.05455194E-33
  -24.4799995       3.04016782E-32
  -24.3600006       6.20303373E-32
  -24.2399998       1.03138145E-31
  -24.1200008       1.49291121E-31
  -24.0000000       1.88242925E-31
  -23.8799992       1.98139753E-31
  -23.7600002       1.49229161E-31
  -23.6399994       1.09435100E-32
  -23.5200005      -2.35030833E-31
  -23.3999996      -5.77383077E-31
  -23.2800007      -9.58159833E-31
  -23.1599998      -1.26360847E-30
  -23.0400009      -1.33194842E-30
  -22.9200001      -9.85974005E-31
  -22.7999992      -9.31891543E-32
  -22.6800003       1.35366920E-30
  -22.5599995       3.15633211E-30
  -22.4400005       4.86509727E-30
  -22.3199997       5.80874803E-30
  -22.2000008       5.23454894E-30
  -22.0799999       2.56438757E-30
  -21.9599991      -2.27632055E-30
  -21.8400002      -8.56002810E-30
  -21.7199993      -1.46381359E-29
  -21.6000004      -1.81525879E-29
  -21.4799995      -1.66587072E-29
  -21.3600006      -8.59312100E-30
  -21.2399998       5.67135926E-30
  -21.1200008       2.31095599E-29
  -21.0000000       3.81425881E-29
  -20.8799992       4.38822536E-29
  -20.7600002       3.44900379E-29
  -20.6399994       8.11121646E-30
  -20.5200005      -3.06434443E-29
  -20.3999996      -6.99400857E-29
  -20.2800007      -9.27566861E-29
  -20.1599998      -8.20386091E-29
  -20.0400009      -2.81253480E-29
  -19.9200001       6.37051825E-29
  -19.7999992       1.68684356E-28
  -19.6800003       2.44206111E-28
  -19.5599995       2.39777195E-28
  -19.4400005       1.14950128E-28
  -19.3199997      -1.38380859E-28
  -19.2000008      -4.76294609E-28
  -19.0799999      -7.94915066E-28
  -18.9599991      -9.43064627E-28
  -18.8400002      -7.60471302E-28
  -18.7199993      -1.38939872E-28
  -18.6000004       9.06318365E-28
  -18.4799995       2.17826028E-27
  -18.3600006       3.28196797E-27
  -18.2399998       3.67865870E-27
  -18.1200008       2.82402112E-27
  -18.0000000       3.79573348E-28
  -17.8799992      -3.54820737E-27
  -17.7600002      -8.21952388E-27
  -17.6399994      -1.22217581E-26
  -17.5200005      -1.36685082E-26
  -17.3999996      -1.06800550E-26
  -17.2800007      -2.10217853E-27
  -17.1599998       1.16910018E-26
  -17.0400009       2.81715849E-26
  -16.9200001       4.25316668E-26
  -16.7999992       4.83475223E-26
  -16.6800003       3.91716555E-26
  -16.5599995       1.09126950E-26
  -16.4400005      -3.54948673E-26
  -16.3199997      -9.19737552E-26
  -16.2000008      -1.42781593E-25
  -16.0799999      -1.66538410E-25
  -15.9600000      -1.41285654E-25
  -15.8400002      -5.21866741E-26
  -15.7200003       9.96589614E-26
  -15.6000004       2.89937962E-25
  -15.4799995       4.68727838E-25
  -15.3599997       5.66151716E-25
  -15.2399998       5.07860171E-25
  -15.1199999       2.39451406E-25
  -15.0000000      -2.44655867E-25
  -14.8800001      -8.76045122E-25
  -14.7600002      -1.50145474E-24
  -14.6400003      -1.89678134E-24
  -14.5200005      -1.81258996E-24
  -14.3999996      -1.04982230E-24
  -14.2799997       4.46775466E-25
  -14.1599998       2.50189563E-24
  -14.0400000       4.66286018E-24
  -13.9200001       6.22743207E-24
  -13.8000002       6.37095663E-24
  -13.6800003       4.37454453E-24
  -13.5600004      -7.79559557E-26
  -13.4399996      -6.60471663E-24
  -13.3199997      -1.39342671E-23
  -13.1999998      -1.99300249E-23
  -13.0799999      -2.19208858E-23
  -12.9600000      -1.73644378E-23
  -12.8400002      -4.76867009E-24
  -12.7200003       1.53222473E-23
  -12.6000004       3.95814336E-23
  -12.4799995       6.17504350E-23
  -12.3599997       7.34067069E-23
  -12.2399998       6.58017974E-23
  -12.1199999       3.26366587E-23
  -12.0000000      -2.67305108E-23
  -11.8800001      -1.04515500E-22
  -11.7600002      -1.83290758E-22
  -11.6400003      -2.37410958E-22
  -11.5200005      -2.37784462E-22
  -11.3999996      -1.59903544E-22
  -11.2799997       6.05813660E-24
  -11.1599998       2.45471956E-22
  -11.0400000       5.13136677E-22
  -10.9200001       7.34414559E-22
  -10.8000002       8.16438725E-22
  -10.6800003       6.70173664E-22
  -10.5600004       2.40943894E-22
  -10.4399996      -4.58723247E-22
  -10.3199997      -1.32351200E-21
  -10.1999998      -2.14837990E-21
  -10.0799999      -2.65061202E-21
  -9.96000004      -2.52640104E-21
  -9.84000015      -1.53884816E-21
  -9.72000027       3.77082581E-22
  -9.60000038       3.01875344E-21
  -9.47999954       5.86363093E-21
  -9.35999966       8.09608921E-21
  -9.23999977       8.73889902E-21
  -9.11999989       6.89300187E-21
  -9.00000000       2.05649823E-21
  -8.88000011      -5.54373417E-21
  -8.76000023      -1.47070015E-20
  -8.64000034      -2.32150727E-20
  -8.52000046      -2.80906368E-20
  -8.39999962      -2.62075391E-20
  -8.27999973      -1.52133588E-20
  -8.15999985       5.38991735E-21
  -8.03999996       3.32777604E-20
  -7.92000008       6.28004374E-20
  -7.80000019       8.53072335E-20
  -7.67999983       9.05585379E-20
  -7.55999994       6.92621656E-20
  -7.44000006       1.64355731E-20
  -7.32000017      -6.50922770E-20
  -7.19999981      -1.62073478E-19
  -7.07999992      -2.50343963E-19
  -6.96000004      -2.97539761E-19
  -6.84000015      -2.69630662E-19
  -6.71999979      -1.40965910E-19
  -6.59999990       9.36937786E-20
  -6.48000002       4.07989104E-19
  -6.36000013       7.37482905E-19
  -6.23999977       9.82079591E-19
  -6.11999989       1.02075163E-18
  -6.00000000       7.39796839E-19
  -5.88000011       7.23283173E-20
  -5.76000023      -9.57793982E-19
  -5.63999987      -2.19888657E-18
  -5.51999998      -3.35579047E-18
  -5.40000010      -4.01066792E-18
  -5.28000021      -3.69156728E-18
  -5.15999985      -1.99130001E-18
  -5.03999996       1.27442342E-18
  -4.92000008       5.89740113E-18
  -4.80000019       1.11403196E-17
  -4.67999983       1.56892770E-17
  -4.55999994       1.77529238E-17
  -4.44000006       1.53515408E-17
  -4.32000017       6.80636716E-18
  -4.19999981      -8.61166652E-18
  -4.07999992      -2.99787492E-17
  -3.96000004      -5.41308482E-17
  -3.83999991      -7.54125344E-17
  -3.72000003      -8.59964692E-17
  -3.59999990      -7.69662509E-17
  -3.48000002      -4.02434518E-17
  -3.35999990       2.87462799E-17
  -3.24000001       1.28017754E-16
  -3.11999989       2.46198596E-16
  -3.00000000       3.60780820E-16
  -2.88000011       4.38427271E-16
  -2.75999999       4.38244841E-16
  -2.64000010       3.18615149E-16
  -2.51999998       4.75612474E-17
  -2.40000010      -3.84257688E-16
  -2.27999997      -9.49895040E-16
  -2.16000009      -1.57484082E-15
  -2.03999996      -2.13196965E-15
  -1.91999996      -2.44682344E-15
  -1.79999995      -2.31674777E-15
  -1.67999995      -1.54575403E-15
  -1.55999994       5.84879393E-18
  -1.44000006       2.36180484E-15
  -1.32000005       5.36938082E-15
  -1.20000005       8.65126672E-15
  -1.08000004       1.15862444E-14
 -0.959999979       1.33356249E-14
 -0.839999974       1.29296860E-14
 -0.720000029       9.42137552E-15
 -0.600000024       2.10304644E-15
 -0.479999989      -9.23316565E-15
 -0.360000014      -2.40280852E-14
 -0.239999995      -4.07347055E-14
 -0.119999997      -5.67092488E-14
  -1.11022302E-15  -6.82830528E-14
  0.119999997      -7.10747243E-14
  0.239999995      -6.05772688E-14
  0.360000014      -3.30128550E-14
  0.479999989       1.36077613E-14
  0.600000024       7.83498429E-14
  0.720000029       1.56335407E-13
  0.839999974       2.38083425E-13
  0.959999979       3.09475075E-13
   1.08000004       3.52588970E-13
   1.20000005       3.47577490E-13
   1.32000005       2.75621296E-13
   1.44000006       1.22812459E-13
   1.55999994      -1.15409567E-13
   1.67999995      -4.29879412E-13
   1.79999995      -7.94199179E-13
   1.91999996      -1.16304329E-12
   2.03999996      -1.47321380E-12
   2.16000009      -1.64821629E-12
   2.27999997      -1.60676377E-12
   2.40000010      -1.27506783E-12
   2.51999998      -6.02071995E-13
   2.64000010       4.23997263E-13
   2.75999999       1.76013197E-12
   2.88000011       3.29704254E-12
   3.00000000       4.85485220E-12
   3.11999989       6.18897988E-12
   3.24000001       7.00844157E-12
   3.35999990       7.00743109E-12
   3.48000002       5.90917072E-12
   3.59999990       3.51871895E-12
   3.72000003      -2.20942920E-13
   3.83999991      -5.17738413E-12
   3.96000004      -1.09911065E-11
   4.07999992      -1.70616212E-11
   4.19999981      -2.25660636E-11
   4.32000017      -2.65166292E-11
   4.44000006      -2.78589131E-11
   4.55999994      -2.56076167E-11
   4.67999983      -1.90096827E-11
   4.80000019      -7.71818633E-12
   4.92000008       8.04536559E-12
   5.03999996       2.73667217E-11
   5.15999985       4.85799699E-11
   5.28000021       6.92988583E-11
   5.40000010       8.65564079E-11
   5.51999998       9.70602626E-11
   5.63999987       9.75565531E-11
   5.76000023       8.52789298E-11
   5.88000011       5.84422580E-11
   6.00000000       1.67252219E-11
   6.11999989      -3.83248086E-11
   6.23999977      -1.03036003E-10
   6.36000013      -1.71572950E-10
   6.48000002      -2.36168390E-10
   6.59999990      -2.87657231E-10
   6.71999979      -3.16312671E-10
   6.84000015      -3.12946502E-10
   6.96000004      -2.70194256E-10
   7.07999992      -1.83867435E-10
   7.19999981      -5.42211900E-11
   7.32000017       1.13036594E-10
   7.44000006       3.06173531E-10
   7.55999994       5.07465125E-10
   7.67999983       6.93962166E-10
   7.80000019       8.39068204E-10
   7.92000008       9.14923248E-10
   8.03999996       8.95500007E-10
   8.15999985       7.60213115E-10
   8.27999973       4.97742736E-10
   8.39999962       1.09679946E-10
   8.52000046      -3.86471688E-10
   8.64000034      -9.55435508E-10
   8.76000023      -1.54393620E-09
   8.88000011      -2.08253503E-09
   9.00000000      -2.48982945E-09
   9.11999989      -2.67912625E-09
   9.23999977      -2.56746002E-09
   9.35999966      -2.08651918E-09
   9.47999954      -1.19473076E-09
   9.60000038       1.10573495E-10
   9.72000027       1.78227011E-09
   9.84000015       3.71541109E-09
   9.96000004       5.74370462E-09
   10.0799999       7.64210206E-09
   10.1999998       9.13680598E-09
   10.3199997       9.92354465E-09
   10.4399996       9.69423830E-09
   10.5600004       8.17128676E-09
   10.6800003       5.14767784E-09
   10.8000002       5.29996991E-10
   10.9200001      -5.61964653E-09
   11.0400000      -1.30476270E-08
   11.1599998      -2.12841691E-08
   11.2799997      -2.96356291E-08
   11.3999996      -3.71987738E-08
   11.5200005      -4.29010143E-08
   11.6400003      -4.55688252E-08
   11.7600002      -4.40240946E-08
   11.8800001      -3.72052185E-08
   12.0000000      -2.43065710E-08
   12.1199999      -4.92660845E-09
   12.2399998       2.07881463E-08
   12.3599997       5.20182724E-08
   12.4799995       8.71822436E-08
   12.6000004       1.23899412E-07
   12.7200003       1.59020118E-07
   12.8400002       1.88734802E-07
   12.9600000       2.08769208E-07
   13.0799999       2.14666400E-07
   13.1999998       2.02148883E-07
   13.3199997       1.67546588E-07
   13.4399996       1.08267962E-07
   13.5600004       2.32845636E-08
   13.6800003      -8.64061889E-08
   13.8000002      -2.17379153E-07
   13.9200001      -3.63480495E-07
   14.0400000      -5.15665306E-07
   14.1599998      -6.62006414E-07
   14.2799997      -7.87898216E-07
   14.3999996      -8.76469301E-07
   14.5200005      -9.09201788E-07
   14.6400003      -8.66745154E-07
   14.7600002      -7.29892975E-07
   14.8800001      -4.80680796E-07
   15.0000000      -1.03549716E-07
   15.1199999       4.13487669E-07
   15.2399998       1.07774849E-06
   15.3599997       1.89091713E-06
   15.4799995       2.84828479E-06
   15.6000004       3.93825167E-06
   15.7200003       5.14213161E-06
   15.8400002       6.43430076E-06
   15.9600000       7.78268713E-06
   16.0799999       9.14960674E-06
   16.2000008       1.04929259E-05
   16.3199997       1.17674845E-05
   16.4400005       1.29267501E-05
   16.5599995       1.39246031E-05
   16.6800003       1.47171941E-05
   16.7999992       1.52647826E-05
   16.9200001       1.55334710E-05
   17.0400009       1.54967547E-05
   17.1599998       1.51368058E-05
   17.2800007       1.44454707E-05
   17.3999996       1.34248730E-05
   17.5200005       1.20876457E-05
   17.6399994       1.04567553E-05
   17.7600002       8.56492716E-06
   17.8799992       6.45369300E-06
   18.0000000       4.17209549E-06
   18.1200008       1.77510685E-06
   18.2399998      -6.78183937E-07
   18.3600006      -3.12654220E-06
   18.4799995      -5.50864070E-06
   18.6000004      -7.76511388E-06
   18.7199993      -9.84053622E-06
   18.8400002      -1.16852598E-05
   18.9599991      -1.32570149E-05
   19.0799999      -1.45222448E-05
   19.2000008      -1.54571080E-05
   19.3199997      -1.60481122E-05
   19.4400005      -1.62923679E-05
   19.5599995      -1.61974658E-05
   19.6800003      -1.57809482E-05
   19.7999992      -1.50694605E-05
   19.9200001      -1.40975735E-05
   20.0400009      -1.29063646E-05
   20.1599998      -1.15417934E-05
   20.2800007      -1.00529569E-05
   20.3999996      -8.49029948E-06
   20.5200005      -6.90383786E-06
   20.6399994      -5.34146966E-06
   20.7600002      -3.84744362E-06
   20.8799992      -2.46102240E-06
   21.0000000      -1.21539608E-06
   21.1200008      -1.36867627E-07
   21.2399998       7.55670499E-07
   21.3600006       1.45096419E-06
   21.4799995       1.94533845E-06
   21.6000004       2.24236919E-06
   21.7199993       2.35231437E-06
   21.8400002       2.29133479E-06
   21.9599991       2.08055212E-06
   22.0799999       1.74497654E-06
   22.2000008       1.31235754E-06
   22.3199997       8.11997779E-07
   22.4400005       2.73574301E-07
   22.5599995      -2.73990736E-07
   22.6800003      -8.03573812E-07
   22.7999992      -1.29077455E-06
   22.9200001      -1.71469412E-06
   23.0400009      -2.05854667E-06
   23.1599998      -2.31008767E-06
   23.2800007      -2.46185414E-06
   23.3999996      -2.51121219E-06
   23.5200005      -2.46022273E-06
   23.6399994      -2.31533340E-06
   23.7600002      -2.08691768E-06
   23.8799992      -1.78868311E-06
   24.0000000      -1.43697469E-06
   24.1200008      -1.05000254E-06
   24.2399998      -6.47024365E-07
   24.3600006      -2.47510229E-07
   24.4799995       1.29679819E-07
   24.6000004       4.67080980E-07
   24.7199993       7.49346952E-07
   24.8400002       9.63889534E-07
   24.9599991       1.10141593E-06
   25.0799999       1.15634475E-06
   25.2000008       1.12708574E-06
   25.3199997       1.01616763E-06
   25.4400005       8.30202850E-07
   25.5599995       5.79677021E-07
   25.6800003       2.78560407E-07
   25.7999992      -5.62605749E-08
   25.9200001      -4.05722830E-07
   26.0400009      -7.49479454E-07
   26.1599998      -1.06691766E-06
   26.2800007      -1.33826074E-06
   26.3999996      -1.54570250E-06
   26.5200005      -1.67451094E-06
   26.6399994      -1.71403326E-06
   26.7600002      -1.65852828E-06
   26.8799992      -1.50775861E-06
   27.0000000      -1.26728048E-06
   27.1200008      -9.48385832E-07
   27.2399998      -5.67671123E-07
   27.3600006      -1.46234370E-07
   27.4799995       2.91472674E-07
   27.6000004       7.19079480E-07
   27.7199993       1.10993608E-06
   27.8400002       1.43885211E-06
   27.9599991       1.68381530E-06
   28.0799999       1.82756639E-06
   28.2000008       1.85890713E-06
   28.3199997       1.77363847E-06
   28.4400005       1.57504496E-06
   28.5599995       1.27387580E-06
   28.6800003       8.87808767E-07
   28.7999992       4.40424401E-07
   28.9200001      -4.02482350E-08
   29.0400009      -5.23515041E-07
   29.1599998      -9.78006256E-07
   29.2800007      -1.37373149E-06
   29.3999996      -1.68405234E-06
   29.5200005      -1.88743320E-06
   29.6399994      -1.96884434E-06
   29.7600002      -1.92072002E-06
   29.8799992      -1.74340732E-06
   30.0000000      -1.44508056E-06
   30.1200008      -1.04113587E-06
   30.2399998      -5.53119321E-07
   30.3600006      -7.27552507E-09
   30.4799995       5.67171924E-07
   30.6000004       1.13987880E-06
   30.7199993       1.68124404E-06
   30.8400002       2.16415128E-06
   30.9599991       2.56547492E-06
   31.0799999       2.86726072E-06
   31.2000008       3.05752269E-06
   31.3199997       3.13062560E-06
   31.4400005       3.08726158E-06
   31.5599995       2.93404673E-06
   31.6800003       2.68280405E-06
   31.7999992       2.34959816E-06
   31.9200001       1.95360917E-06
   32.0400009       1.51592599E-06
   32.1599998       1.05834329E-06
   32.2799988       6.02222030E-07
   32.4000015       1.67473090E-07
   32.5200005      -2.28302653E-07
   32.6399994      -5.70492375E-07
   32.7599983      -8.47959143E-07
   32.8800011      -1.05333913E-06
   33.0000000      -1.18315518E-06
   33.1199989      -1.23775771E-06
   33.2400017      -1.22110725E-06
   33.3600006      -1.14041086E-06
   33.4799995      -1.00563057E-06
   33.5999985      -8.28881582E-07
   33.7200012      -6.23739197E-07
   33.8400002      -4.04484723E-07
   33.9599991      -1.85319180E-07
   34.0800018       2.04166266E-08
   34.2000008       2.00974597E-07
   34.3199997       3.46841063E-07
   34.4399986       4.51245739E-07
   34.5600014       5.10501309E-07
   34.6800003       5.24146117E-07
   34.7999992       4.94875053E-07
   34.9199982       4.28259597E-07
   35.0400009       3.32274226E-07
   35.1599998       2.16663011E-07
   35.2799988       9.21946395E-08
   35.4000015      -3.01360394E-08
   35.5200005      -1.39896045E-07
   35.6399994      -2.27929277E-07
   35.7599983      -2.86942566E-07
   35.8800011      -3.11919393E-07
   36.0000000      -3.00335756E-07
   36.1199989      -2.52171390E-07
   36.2400017      -1.69730995E-07
   36.3600006      -5.73079824E-08
   36.4799995       7.92616106E-08
   36.5999985       2.33099485E-07
   36.7200012       3.96780905E-07
   36.8400002       5.62774630E-07
   36.9599991       7.23785206E-07
   37.0800018       8.72976216E-07
   37.2000008       1.00406919E-06
   37.3199997       1.11133772E-06
   37.4399986       1.18952903E-06
   37.5600014       1.23376196E-06
   37.6800003       1.23945131E-06
   37.7999992       1.20230811E-06
   37.9199982       1.11845247E-06
   38.0400009       9.84659550E-07
   38.1599998       7.98734845E-07
   38.2799988       5.59991520E-07
   38.4000015       2.69781481E-07
   38.5200005      -6.79877772E-08
   38.6399994      -4.46426526E-07
   38.7599983      -8.55403641E-07
   38.8800011      -1.28152305E-06
   39.0000000      -1.70838416E-06
   39.1199989      -2.11714837E-06
   39.2400017      -2.48740344E-06
   39.3600006      -2.79828100E-06
   39.4799995      -3.02975945E-06
   39.5999985      -3.16405112E-06
   39.7200012      -3.18696425E-06
   39.8400002      -3.08912104E-06
   39.9599991      -2.86692057E-06
   40.0800018      -2.52315249E-06
   40.2000008      -2.06719233E-06
   40.3199997      -1.51474808E-06
   40.4399986      -8.87155238E-07
   40.5600014      -2.10265725E-07
   40.6800003       4.86995418E-07
   40.7999992       1.17430147E-06
   40.9199982       1.82169936E-06
   41.0400009       2.40135637E-06
   41.1599998       2.88914839E-06
   41.2799988       3.26597592E-06
   41.4000015       3.51871267E-06
   41.5200005       3.64073344E-06
   41.6399994       3.63199388E-06
   41.7599983       3.49867628E-06
   41.8800011       3.25245719E-06
   42.0000000       2.90946832E-06
   42.1199989       2.48905508E-06
   42.2400017       2.01244302E-06
   42.3600006       1.50142057E-06
   42.4799995       9.77139393E-07
   42.5999985       4.59111504E-07
   42.7200012      -3.55426515E-08
   42.8400002      -4.92571417E-07
   42.9599991      -9.00800330E-07
   43.0800018      -1.25210386E-06
   43.2000008      -1.54119152E-06
   43.3199997      -1.76527476E-06
   43.4399986      -1.92367838E-06
   43.5600014      -2.01746252E-06
   43.6800003      -2.04909702E-06
   43.7999992      -2.02222031E-06
   43.9199982      -1.94149084E-06
   44.0400009      -1.81251914E-06
   44.1599998      -1.64184814E-06
   44.2799988      -1.43694649E-06
   44.4000015      -1.20616789E-06
   44.5200005      -9.58639816E-07
   44.6399994      -7.04052241E-07
   44.7599983      -4.52334547E-07
   44.8800011      -2.13228574E-07
   45.0000000       4.21654844E-09
   45.1199989       1.92183037E-07
   45.2400017       3.44603421E-07
   45.3600006       4.57599725E-07
   45.4799995       5.29787940E-07
   45.5999985       5.62402306E-07
   45.7200012       5.59212026E-07
   45.8400002       5.26223630E-07
   45.9599991       4.71186780E-07
   46.0800018       4.02940884E-07
   46.2000008       3.30661209E-07
   46.3199997       2.63073161E-07
   46.4399986       2.07709704E-07
   46.5600014       1.70283883E-07
   46.6800003       1.54237341E-07
   46.7999992       1.60508705E-07
   46.9199982       1.87542881E-07
   47.0400009       2.31538721E-07
   47.1599998       2.86907266E-07
   47.2799988       3.46891198E-07
   47.4000015       4.04280570E-07
   47.5200005       4.52149266E-07
   47.6399994       4.84536770E-07
   47.7599983       4.97005772E-07
   47.8800011       4.87020998E-07
   48.0000000       4.54115479E-07
   48.1199989       3.99834931E-07
   48.2400017       3.27475107E-07
   48.3600006       2.41650980E-07
   48.4799995       1.47754861E-07
   48.5999985       5.13710567E-08
   48.7200012      -4.22818829E-08
   48.8400002      -1.28817334E-07
   48.9599991      -2.05004042E-07
   49.0800018      -2.68917404E-07
   49.2000008      -3.19911777E-07
   49.3199997      -3.58430697E-07
   49.4399986      -3.85692857E-07
   49.5600014      -4.03305819E-07
   49.6800003      -4.12866711E-07
   49.7999992      -4.15607389E-07
   49.9199982      -4.12133346E-07
   50.0400009      -4.02289572E-07
   50.1599998      -3.85168107E-07
   50.2799988      -3.59252624E-07
   50.4000015      -3.22677607E-07
   50.5200005      -2.73565547E-07
   50.6399994      -2.10398809E-07
   50.7599983      -1.32379185E-07
   50.8800011      -3.97330844E-08
   51.0000000       6.60722961E-08
   51.1199989       1.82225364E-07
   51.2400017       3.04590031E-07
   51.3600006       4.27848420E-07
   51.4799995       5.45754915E-07
   51.5999985       6.51482424E-07
   51.7200012       7.38035510E-07
   51.8400002       7.98702445E-07
   51.9599991       8.27516601E-07
   52.0800018       8.19698755E-07
   52.2000008       7.72052260E-07
   52.3199997       6.83286544E-07
   52.4399986       5.54247833E-07
   52.5600014       3.88037705E-07
   52.6800003       1.90008521E-07
   52.7999992      -3.23716272E-08
   52.9199982      -2.69784948E-07
   53.0400009      -5.11451844E-07
   53.1599998      -7.45626267E-07
   53.2799988      -9.60175498E-07
   53.4000015      -1.14321563E-06
   53.5200005      -1.28376882E-06
   53.6399994      -1.37240784E-06
   53.7599983      -1.40184954E-06
   53.8800011      -1.36746564E-06
   54.0000000      -1.26767748E-06
   54.1199989      -1.10421161E-06
   54.2400017      -8.82195820E-07
   54.3600006      -6.10083077E-07
   54.4799995      -2.99399773E-07
   54.5999985       3.56807668E-08
   54.7200012       3.78928405E-07
   54.8400002       7.12793678E-07
   54.9599991       1.01926707E-06
   55.0800018       1.28082854E-06
   55.2000008       1.48144704E-06
   55.3199997       1.60758736E-06
   55.4399986       1.64916844E-06
   55.5600014       1.60042077E-06
   55.6800003       1.46058210E-06
   55.7999992       1.23437303E-06
   55.9199982       9.32197054E-07
   56.0400009       5.70014663E-07
   56.1599998       1.68857582E-07
   56.2799988      -2.46038297E-07
   56.4000015      -6.46475826E-07
   56.5200005      -1.00288366E-06
   56.6399994      -1.28618433E-06
   56.7599983      -1.46984723E-06
   56.8800011      -1.53199767E-06
   57.0000000      -1.45743240E-06
   57.1199989      -1.23936911E-06
   57.2400017      -8.80761149E-07
   57.3600006      -3.95017537E-07
   57.4799995       1.93999455E-07
   57.5999985       8.52779976E-07
   57.7200012       1.53979568E-06
   57.8400002       2.20790071E-06
   57.9599991       2.80738072E-06
   58.0800018       3.28945475E-06
   58.2000008       3.60997933E-06
   58.3199997       3.73306170E-06
   58.4399986       3.63427966E-06
   58.5600014       3.30321222E-06
   58.6800003       2.74503350E-06
   58.7999992       1.98098473E-06
   58.9199982       1.04762751E-06
   59.0400009      -5.11378451E-09
   59.1599998      -1.11701274E-06
   59.2799988      -2.22149697E-06
   59.4000015      -3.25020869E-06
   59.5200005      -4.13782345E-06
   59.6399994      -4.82674841E-06
   59.7599983      -5.27132761E-06
   59.8800011      -5.44121576E-06
   60.0000000      -5.32365539E-06
   60.1199989      -4.92446225E-06
   60.2400017      -4.26764973E-06
   60.3600006      -3.39371809E-06
   60.4799995      -2.35673838E-06
   60.5999985      -1.22047641E-06
   60.7200012      -5.38501510E-08
   60.8400002       1.07391554E-06
   60.9599991       2.09806581E-06
   61.0800018       2.96265739E-06
   61.2000008       3.62414198E-06
   61.3199997       4.05393394E-06
   61.4399986       4.23979009E-06
   61.5600014       4.18593118E-06
   61.6800003       3.91193225E-06
   61.7999992       3.45051308E-06
   61.9199982       2.84444172E-06
   62.0400009       2.14283364E-06
   62.1599998       1.39716212E-06
   62.2799988       6.57318253E-07
   62.4000015      -3.19658433E-08
   62.5200005      -6.34057699E-07
   62.6399994      -1.12251928E-06
   62.7599983      -1.48223216E-06
   62.8800011      -1.70951500E-06
   63.0000000      -1.81128792E-06
   63.1199989      -1.80341726E-06
   63.2400017      -1.70844078E-06
   63.3600006      -1.55291809E-06
   63.4799995      -1.36466849E-06
   63.5999985      -1.17015293E-06
   63.7200012      -9.92226205E-07
   63.8400002      -8.48436287E-07
   63.9599991      -7.49978199E-07
   64.0800018      -7.01345755E-07
   64.1999969      -7.00646694E-07
   64.3199997      -7.40487963E-07
   64.4400024      -8.09288281E-07
   64.5599976      -8.92845264E-07
   64.6800003      -9.75973194E-07
   64.8000031      -1.04404069E-06
   64.9199982      -1.08426411E-06
   65.0400009      -1.08665654E-06
   65.1600037      -1.04458070E-06
   65.2799988      -9.54905886E-07
   65.4000015      -8.17819000E-07
   65.5199966      -6.36369407E-07
   65.6399994      -4.15857869E-07
   65.7600021      -1.63178044E-07
   65.8799973       1.13788076E-07
   66.0000000       4.06645000E-07
   66.1200027       7.06788626E-07
   66.2399979       1.00553916E-06
   66.3600006       1.29413672E-06
   66.4800034       1.56366241E-06
   66.5999985       1.80496522E-06
   66.7200012       2.00867498E-06
   66.8399963       2.16536569E-06
   66.9599991       2.26590964E-06
   67.0800018       2.30202272E-06
   67.1999969       2.26696261E-06
   67.3199997       2.15631235E-06
   67.4400024       1.96874225E-06
   67.5599976       1.70664566E-06
   67.6800003       1.37653558E-06
   67.8000031       9.89117780E-07
   67.9199982       5.58984482E-07
   68.0400009       1.03919497E-07
   68.1600037      -3.56148149E-07
   68.2799988      -8.00459020E-07
   68.4000015      -1.20888728E-06
   68.5199966      -1.56341252E-06
   68.6399994      -1.84945054E-06
   68.7600021      -2.05690435E-06
   68.8799973      -2.18082710E-06
   69.0000000      -2.22162498E-06
   69.1200027      -2.18477953E-06
   69.2399979      -2.08011897E-06
   69.3600006      -1.92071025E-06
   69.4800034      -1.72149657E-06
   69.5999985      -1.49781170E-06
   69.7200012      -1.26393229E-06
   69.8399963      -1.03181571E-06
   69.9599991      -8.10148947E-07
   70.0800018      -6.03810520E-07
   70.1999969      -4.13793600E-07
   70.3199997      -2.37596169E-07
   70.4400024      -7.00312199E-08
   70.5599976       9.56342987E-08
   70.6800003       2.66341942E-07
   70.8000031       4.47857360E-07
   70.9199982       6.43500243E-07
   71.0400009       8.53140023E-07
   71.1600037       1.07258234E-06
   71.2799988       1.29343061E-06
   71.4000015       1.50345829E-06
   71.5199966       1.68747067E-06
   71.6399994       1.82858184E-06
   71.7600021       1.90978812E-06
   71.8799973       1.91568165E-06
   72.0000000       1.83413704E-06
   72.1200027       1.65779522E-06
   72.2399979       1.38519749E-06
   72.3600006       1.02144861E-06
   72.4800034       5.78336426E-07
   72.5999985       7.38874348E-08
   72.7200012      -4.68609016E-07