  -30.0000000       0.00000000    
  -29.8799992       0.00000000    
  -29.7600002       0.00000000    
  -29.6399994       0.00000000    
  -29.5200005       0.00000000    
  -29.3999996       0.00000000    
  -29.2800007       0.00000000    
  -29.1599998       1.54064933E-31
  -29.0400009      -3.61634460E-32
  -28.9200001      -1.28479178E-29
  -28.7999992      -1.10846958E-28
  -28.6800003      -5.41687634E-28
  -28.5599995      -1.84137969E-27
  -28.4400005      -4.57166735E-27
  -28.3199997      -7.85858612E-27
  -28.2000008      -5.97952791E-27
  -28.0799999       1.57367412E-26
  -27.9599991       7.94472911E-26
  -27.8400002       1.96205891E-25
  -27.7199993       3.22494892E-25
  -27.6000004       3.09770097E-25
  -27.4799995      -8.83806971E-26
  -27.3600006      -1.05727103E-24
  -27.2399998      -2.38170104E-24
  -27.1200008      -3.11792480E-24
  -27.0000000      -1.76438168E-24
  -26.8799992       2.52602432E-24
  -26.7600002       7.78087984E-24
  -26.6399994       7.64805933E-24
  -26.5200005      -6.44522355E-24
  -26.3999996      -3.65287406E-23
  -26.2800007      -6.39741645E-23
  -26.1599998      -3.95185929E-23
  -26.0400009       1.04936562E-22
  -25.9200001       4.05918464E-22
  -25.7999992       7.81571174E-22
  -25.6800003       9.48861991E-22
  -25.5599995       4.26608707E-22
  -25.4400005      -1.28271661E-21
  -25.3199997      -4.29446890E-21
  -25.2000008      -7.82065827E-21
  -25.0799999      -9.78924634E-21
  -24.9599991      -6.98220409E-21
  -24.8400002       3.97122384E-21
  -24.7199993       2.46588664E-20
  -24.6000004       5.23292615E-20
  -24.4799995       7.74819627E-20
  -24.3600006       8.27545348E-20
  -24.2399998       4.45849898E-20
  -24.1200008      -6.05449550E-20
  -24.0000000      -2.43377836E-19
  -23.8799992      -4.81776459E-19
  -23.7600002      -6.96137833E-19
  -23.6399994      -7.31120180E-19
  -23.5200005      -3.65461242E-19
  -23.3999996       6.20312978E-19
  -23.2800007       2.29517763E-18
  -23.1599998       4.35957146E-18
  -23.0400009       5.93727910E-18
  -22.9200001       5.53898212E-18
  -22.7999992       1.40720307E-18
  -22.6800003      -7.60688692E-18
  -22.5599995      -2.07119573E-17
  -22.4400005      -3.38556687E-17
  -22.3199997      -3.92962440E-17
  -22.2000008      -2.71268505E-17
  -22.0799999       1.05667708E-17
  -21.9599991       7.33673800E-17
  -21.8400002       1.46182481E-16
  -21.7199993       1.96720212E-16
  -21.6000004       1.81082158E-16
  -21.4799995       5.99570286E-17
  -21.3600006      -1.76631754E-16
  -21.2399998      -4.84358903E-16
  -21.1200008      -7.53168568E-16
  -21.0000000      -8.24011968E-16
  -20.8799992      -5.41515257E-16
  -20.7600002       1.64761342E-16
  -20.6399994       1.19723258E-15
  -20.5200005       2.24745115E-15
  -20.3999996       2.83636436E-15
  -20.2800007       2.45904740E-15
  -20.1599998       8.12352083E-16
  -20.0400009      -1.96795887E-15
  -19.9200001      -5.17182732E-15
  -19.7999992      -7.59074759E-15
  -19.6800003      -7.85726058E-15
  -19.5599995      -4.99448657E-15
  -19.4400005       9.99237145E-16
  -19.3199997       8.78791770E-15
  -19.2000008       1.58039577E-14
  -19.0799999       1.89368784E-14
  -18.9599991       1.56882377E-14
  -18.8400002       5.42487460E-15
  -18.7199993      -9.79682203E-15
  -18.6000004      -2.53271254E-14
  -18.4799995      -3.51592399E-14
  -18.3600006      -3.40763184E-14
  -18.2399998      -2.00128949E-14
  -18.1200008       4.34090198E-15
  -18.0000000       3.15719469E-14
  -17.8799992       5.15845674E-14
  -17.7600002       5.52246813E-14
  -17.6399994       3.82737597E-14
  -17.5200005       4.17112989E-15
  -17.3999996      -3.59715038E-14
  -17.2800007      -6.66169593E-14
  -17.1599998      -7.35569307E-14
  -17.0400009      -5.01806577E-14
  -16.9200001      -1.65563876E-15
  -16.7999992       5.51705288E-14
  -16.6800003       9.68933728E-14
  -16.5599995       1.02410112E-13
  -16.4400005       6.23783319E-14
  -16.3199997      -1.46765433E-14
  -16.2000008      -1.02806598E-13
  -16.0799999      -1.66580562E-13
  -15.9600000      -1.74405520E-13
  -15.8400002      -1.12462380E-13
  -15.7200003       6.56608463E-15
  -15.6000004       1.44524231E-13
  -15.4799995       2.49692221E-13
  -15.3599997       2.76235171E-13
  -15.2399998       2.04106805E-13
  -15.1199999       5.10104925E-14
  -15.0000000      -1.29901827E-13
  -14.8800001      -2.67796690E-13
  -14.7600002      -3.02148036E-13
  -14.6400003      -2.10476073E-13
  -14.5200005      -2.37905415E-14
  -14.3999996       1.78962734E-13
  -14.2799997       2.98531517E-13
  -14.1599998       2.56807244E-13
  -14.0400000       3.64991342E-14
  -13.9200001      -2.98464920E-13
  -13.8000002      -6.14083545E-13
  -13.6800003      -7.49966712E-13
  -13.5600004      -5.83003968E-13
  -13.4399996      -8.79754304E-14
  -13.3199997       6.30519020E-13
  -13.1999998       1.35283169E-12
  -13.0799999       1.80761732E-12
  -12.9600000       1.76634911E-12
  -12.8400002       1.13661012E-12
  -12.7200003       1.77667583E-14
  -12.6000004      -1.30734442E-12
  -12.4799995      -2.44936385E-12
  -12.3599997      -3.03654693E-12
  -12.2399998      -2.84420816E-12
  -12.1199999      -1.88156175E-12
  -12.0000000      -4.00341490E-13
  -11.8800001       1.18299207E-12
  -11.7600002       2.42671768E-12
  -11.6400003       3.01465428E-12
  -11.5200005       2.86068998E-12
  -11.3999996       2.12499332E-12
  -11.2799997       1.13371443E-12
  -11.1599998       2.33585015E-13
  -11.0400000      -3.57963740E-13
  -10.9200001      -6.40942486E-13
  -10.8000002      -8.15618840E-13
  -10.6800003      -1.16027641E-12
  -10.5600004      -1.85254871E-12
  -10.4399996      -2.81525693E-12
  -10.3199997      -3.66789758E-12
  -10.1999998      -3.82888426E-12
  -10.0799999      -2.75206398E-12
  -9.96000004      -2.17020859E-13
  -9.84000015       3.44672880E-12
  -9.72000027       7.31596554E-12
  -9.60000038       1.00699041E-11
  -9.47999954       1.03971519E-11
  -9.35999966       7.49348153E-12
  -9.23999977       1.47345363E-12
  -9.11999989      -6.47662870E-12
  -9.00000000      -1.43048455E-11
  -8.88000011      -1.96389884E-11
  -8.76000023      -2.05229479E-11
  -8.64000034      -1.61076569E-11
  -8.52000046      -7.04850761E-12
  -8.39999962       4.56112145E-12
  -8.27999973       1.57442549E-11
  -8.15999985       2.35382044E-11
  -8.03999996       2.59595609E-11
  -7.92000008       2.27133659E-11
  -7.80000019       1.53846987E-11
  -7.67999983       7.00454798E-12
  -7.55999994       1.08134931E-12
  -7.44000006       3.69831254E-13
  -7.32000017       5.74996170E-12
  -7.19999981       1.55751020E-11
  -7.07999992       2.57213278E-11
  -6.96000004       3.03669451E-11
  -6.84000015       2.33138352E-11
  -6.71999979      -5.02853455E-13
  -6.59999990      -4.37339019E-11
  -6.48000002      -1.05923353E-10
  -6.36000013      -1.83601620E-10
  -6.23999977      -2.71141914E-10
  -6.11999989      -3.62142316E-10
  -6.00000000      -4.50948057E-10
  -5.88000011      -5.33886269E-10
  -5.76000023      -6.09870043E-10
  -5.63999987      -6.80209056E-10
  -5.51999998      -7.47700846E-10
  -5.40000010      -8.15295997E-10
  -5.28000021      -8.84771145E-10
  -5.15999985      -9.55855617E-10
  -5.03999996      -1.02613251E-09
  -4.92000008      -1.09179521E-09
  -4.80000019      -1.14906307E-09
  -4.67999983      -1.19582499E-09
  -4.55999994      -1.23296517E-09
  -4.44000006      -1.26489752E-09
  -4.32000017      -1.29905831E-09
  -4.19999981      -1.34444056E-09
  -4.07999992      -1.40957945E-09
  -3.96000004      -1.50060209E-09
  -3.83999991      -1.61995806E-09
  -3.72000003      -1.76623993E-09
  -3.59999990      -1.93514027E-09
  -3.48000002      -2.12120410E-09
  -3.35999990      -2.31976505E-09
  -3.24000001      -2.52839505E-09
  -3.11999989      -2.74738565E-09
  -3.00000000      -2.97914782E-09
  -2.88000011      -3.22683036E-09
  -2.75999999      -3.49274742E-09
  -2.64000010      -3.77727849E-09
  -2.51999998      -4.07871070E-09
  -2.40000010      -4.39412595E-09
  -2.27999997      -4.72102402E-09
  -2.16000009      -5.05907627E-09
  -2.03999996      -5.41134737E-09
  -1.91999996      -5.78451154E-09
  -1.79999995      -6.18795370E-09
  -1.67999995      -6.63200916E-09
  -1.55999994      -7.12589854E-09
  -1.44000006      -7.67595587E-09
  -1.32000005      -8.28462721E-09
  -1.20000005      -8.95043684E-09
  -1.08000004      -9.66884972E-09
 -0.959999979      -1.04337499E-08
 -0.839999974      -1.12392025E-08
 -0.720000029      -1.20811841E-08
 -0.600000024      -1.29590569E-08
 -0.479999989      -1.38766145E-08
 -0.360000014      -1.48425139E-08
 -0.239999995      -1.58699134E-08
 -0.119999997      -1.69751750E-08
  -1.11022302E-15  -1.81756317E-08
  0.119999997      -1.94866914E-08
  0.239999995      -2.09188613E-08
  0.360000014      -2.24755290E-08
  0.479999989      -2.41522446E-08
  0.600000024      -2.59380464E-08
  0.720000029      -2.78187855E-08
  0.839999974      -2.97816936E-08
  0.959999979      -3.18200684E-08
   1.08000004      -3.39366188E-08
   1.20000005      -3.61444172E-08
   1.32000005      -3.84650853E-08
   1.44000006      -4.09247320E-08
   1.55999994      -4.35487841E-08
   1.67999995      -4.63574139E-08
   1.79999995      -4.93629244E-08
   1.91999996      -5.25697494E-08
   2.03999996      -5.59770044E-08
   2.16000009      -5.95824794E-08
   2.27999997      -6.33866932E-08
   2.40000010      -6.73955896E-08
   2.51999998      -7.16211801E-08
   2.64000010      -7.60801342E-08
   2.75999999      -8.07912102E-08
   2.88000011      -8.57725624E-08
   3.00000000      -9.10401212E-08
   3.11999989      -9.66074793E-08
   3.24000001      -1.02487071E-07
   3.35999990      -1.08692070E-07
   3.48000002      -1.15238016E-07
   3.59999990      -1.22143348E-07
   3.72000003      -1.29428798E-07
   3.83999991      -1.37115748E-07
   3.96000004      -1.45224462E-07
   4.07999992      -1.53772760E-07
   4.19999981      -1.62775663E-07
   4.32000017      -1.72246345E-07
   4.44000006      -1.82197610E-07
   4.55999994      -1.92644023E-07
   4.67999983      -2.03603591E-07
   4.80000019      -2.15099107E-07
   4.92000008      -2.27158608E-07
   5.03999996      -2.39815364E-07
   5.15999985      -2.53107061E-07
   5.28000021      -2.67074398E-07
   5.40000010      -2.81759299E-07
   5.51999998      -2.97202860E-07
   5.63999987      -3.13443167E-07
   5.76000023      -3.30514041E-07
   5.88000011      -3.48444445E-07
   6.00000000      -3.67259616E-07
   6.11999989      -3.86983089E-07
   6.23999977      -4.07639448E-07
   6.36000013      -4.29256943E-07
   6.48000002      -4.51868942E-07
   6.59999990      -4.75514241E-07
   6.71999979      -5.00235899E-07
   6.84000015      -5.26079361E-07
   6.96000004      -5.53090217E-07
   7.07999992      -5.81313031E-07
   7.19999981      -6.10791062E-07
   7.32000017      -6.41567112E-07
   7.44000006      -6.73684781E-07
   7.55999994      -7.07190736E-07
   7.67999983      -7.42135796E-07
   7.80000019      -7.78576350E-07
   7.92000008      -8.16574357E-07
   8.03999996      -8.56197914E-07
   8.15999985      -8.97519840E-07
   8.27999973      -9.40616815E-07
   8.39999962      -9.85566885E-07
   8.52000046      -1.03244781E-06
   8.64000034      -1.08133452E-06
   8.76000023      -1.13229760E-06
   8.88000011      -1.18540413E-06
   9.00000000      -1.24071846E-06
   9.11999989      -1.29830573E-06
   9.23999977      -1.35823416E-06
   9.35999966      -1.42057763E-06
   9.47999954      -1.48541585E-06
   9.60000038      -1.55283249E-06
   9.72000027      -1.62291155E-06
   9.84000015      -1.69573275E-06
   9.96000004      -1.77137053E-06
   10.0799999      -1.84989233E-06
   10.1999998      -1.93136179E-06
   10.3199997      -2.01584248E-06
   10.4399996      -2.10340340E-06
   10.5600004      -2.19412300E-06
   10.6800003      -2.28809245E-06
   10.8000002      -2.38541543E-06
   10.9200001      -2.48620768E-06
   11.0400000      -2.59059266E-06
   11.1599998      -2.69869929E-06
   11.2799997      -2.81065832E-06
   11.3999996      -2.92659911E-06
   11.5200005      -3.04664854E-06
   11.6400003      -3.17093145E-06
   11.7600002      -3.29957061E-06
   11.8800001      -3.43268971E-06
   12.0000000      -3.57041404E-06
   12.1199999      -3.71287160E-06
   12.2399998      -3.86019747E-06
   12.3599997      -4.01253055E-06
   12.4799995      -4.17001593E-06
   12.6000004      -4.33280229E-06
   12.7200003      -4.50104426E-06
   12.8400002      -4.67489826E-06
   12.9600000      -4.85452483E-06
   13.0799999      -5.04008858E-06
   13.1999998      -5.23175368E-06
   13.3199997      -5.42968655E-06
   13.4399996      -5.63405001E-06
   13.5600004      -5.84500367E-06
   13.6800003      -6.06270351E-06
   13.8000002      -6.28730322E-06
   13.9200001      -6.51896244E-06
   14.0400000      -6.75784986E-06
   14.1599998      -7.00415012E-06
   14.2799997      -7.25806512E-06
   14.3999996      -7.51981179E-06
   14.5200005      -7.78961839E-06
   14.6400003      -8.06771732E-06
   14.7600002      -8.35433457E-06
   14.8800001      -8.64968570E-06
   15.0000000      -8.95397352E-06
   15.1199999      -9.26738630E-06
   15.2399998      -9.59010231E-06
   15.3599997      -9.92229161E-06
   15.4799995      -1.02641279E-05
   15.6000004      -1.06157931E-05
   15.7200003      -1.09774837E-05
   15.8400002      -1.13494152E-05
   15.9600000      -1.17318323E-05
   16.0799999      -1.21250014E-05
   16.2000008      -1.25292063E-05
   16.3199997      -1.29447417E-05
   16.4400005      -1.33718959E-05
   16.5599995      -1.38109408E-05
   16.6800003      -1.42621275E-05
   16.7999992      -1.47256796E-05
   16.9200001      -1.52018165E-05
   17.0400009      -1.56907463E-05
   17.1599998      -1.61927019E-05
   17.2800007      -1.67079324E-05
   17.3999996      -1.72367254E-05
   17.5200005      -1.77793881E-05
   17.6399994      -1.83362536E-05
   17.7600002      -1.89076654E-05
   17.8799992      -1.94939657E-05
   18.0000000      -2.00954983E-05
   18.1200008      -2.07125886E-05
   18.2399998      -2.13455514E-05
   18.3600006      -2.19946687E-05
   18.4799995      -2.26602060E-05
   18.6000004      -2.33424071E-05
   18.7199993      -2.40415029E-05
   18.8400002      -2.47577300E-05
   18.9599991      -2.54913466E-05
   19.0799999      -2.62426365E-05
   19.2000008      -2.70119181E-05
   19.3199997      -2.77995387E-05
   19.4400005      -2.86058475E-05
   19.5599995      -2.94311922E-05
   19.6800003      -3.02758817E-05
   19.7999992      -3.11402000E-05
   19.9200001      -3.20243889E-05
   20.0400009      -3.29286740E-05
   20.1599998      -3.38532518E-05
   20.2800007      -3.47983332E-05
   20.3999996      -3.57641220E-05
   20.5200005      -3.67508219E-05
   20.6399994      -3.77586366E-05
   20.7600002      -3.87877772E-05
   20.8799992      -3.98384400E-05
   21.0000000      -4.09108252E-05
   21.1200008      -4.20051583E-05
   21.2399998      -4.31216577E-05
   21.3600006      -4.42605487E-05
   21.4799995      -4.54220644E-05
   21.6000004      -4.66064230E-05
   21.7199993      -4.78138063E-05
   21.8400002      -4.90443745E-05
   21.9599991      -5.02982184E-05
   22.0799999      -5.15754073E-05
   22.2000008      -5.28759447E-05
   22.3199997      -5.41998197E-05
   22.4400005      -5.55469778E-05
   22.5599995      -5.69173535E-05
   22.6800003      -5.83108485E-05
   22.7999992      -5.97273647E-05
   22.9200001      -6.11667710E-05
   23.0400009      -6.26289402E-05
   23.1599998      -6.41137012E-05
   23.2800007      -6.56208940E-05
   23.3999996      -6.71503076E-05
   23.5200005      -6.87017309E-05
   23.6399994      -7.02749167E-05
   23.7600002      -7.18696028E-05
   23.8799992      -7.34854548E-05
   24.0000000      -7.51221014E-05
   24.1200008      -7.67790916E-05
   24.2399998      -7.84559015E-05
   24.3600006      -8.01519491E-05
   24.4799995      -8.18665721E-05
   24.6000004      -8.35990868E-05
   24.7199993      -8.53487727E-05
   24.8400002      -8.71148659E-05
   24.9599991      -8.88965951E-05
   25.0799999      -9.06931600E-05
   25.2000008      -9.25037093E-05
   25.3199997      -9.43273553E-05
   25.4400005      -9.61631376E-05
   25.5599995      -9.80100085E-05
   25.6800003      -9.98668911E-05
   25.7999992      -1.01732607E-04
   25.9200001      -1.03605955E-04
   26.0400009      -1.05485626E-04
   26.1599998      -1.07370273E-04
   26.2800007      -1.09258464E-04
   26.3999996      -1.11148693E-04
   26.5200005      -1.13039372E-04
   26.6399994      -1.14928851E-04
   26.7600002      -1.16815390E-04
   26.8799992      -1.18697200E-04
   27.0000000      -1.20572411E-04
   27.1200008      -1.22439102E-04
   27.2399998      -1.24295300E-04
   27.3600006      -1.26138970E-04
   27.4799995      -1.27968000E-04
   27.6000004      -1.29780223E-04
   27.7199993      -1.31573426E-04
   27.8400002      -1.33345296E-04
   27.9599991      -1.35093520E-04
   28.0799999      -1.36815608E-04
   28.2000008      -1.38509058E-04
   28.3199997      -1.40171178E-04
   28.4400005      -1.41799290E-04
   28.5599995      -1.43390585E-04
   28.6800003      -1.44942183E-04
   28.7999992      -1.46451144E-04
   28.9200001      -1.47914485E-04
   29.0400009      -1.49329135E-04
   29.1599998      -1.50691965E-04
   29.2800007      -1.51999833E-04
   29.3999996      -1.53249464E-04
   29.5200005      -1.54437585E-04
   29.6399994      -1.55560847E-04
   29.7600002      -1.56615861E-04
   29.8799992      -1.57599206E-04
   30.0000000      -1.58507362E-04
   30.1200008      -1.59336763E-04
   30.2399998      -1.60083800E-04
   30.3600006      -1.60744821E-04
   30.4799995      -1.61316115E-04
   30.6000004      -1.61793985E-04
   30.7199993      -1.62174634E-04
   30.8400002      -1.62454293E-04
   30.9599991      -1.62629192E-04
   31.0799999      -1.62695520E-04
   31.2000008      -1.62649463E-04
   31.3199997      -1.62487209E-04
   31.4400005      -1.62204888E-04
   31.5599995      -1.61798700E-04
   31.6800003      -1.61264761E-04
   31.7999992      -1.60599244E-04
   31.9200001      -1.59798306E-04
   32.0400009      -1.58858136E-04
   32.1599998      -1.57774935E-04
   32.2799988      -1.56544964E-04
   32.4000015      -1.55164496E-04
   32.5200005      -1.53629924E-04
   32.6399994      -1.51937711E-04
   32.7599983      -1.50084350E-04
   32.8800011      -1.48066450E-04
   33.0000000      -1.45880622E-04
   33.1199989      -1.43523590E-04
   33.2400017      -1.40992066E-04
   33.3600006      -1.38282878E-04
   33.4799995      -1.35392926E-04
   33.5999985      -1.32319226E-04
   33.7200012      -1.29058855E-04
   33.8400002      -1.25609091E-04
   33.9599991      -1.21967292E-04
   34.0800018      -1.18131022E-04
   34.2000008      -1.14097980E-04
   34.3199997      -1.09866029E-04
   34.4399986      -1.05433173E-04
   34.5600014      -1.00797602E-04
   34.6800003      -9.59576064E-05
   34.7999992      -9.09116716E-05
   34.9199982      -8.56584738E-05
   35.0400009      -8.01968927E-05
   35.1599998      -7.45259822E-05
   35.2799988      -6.86450658E-05
   35.4000015      -6.25536341E-05
   35.5200005      -5.62514360E-05
   35.6399994      -4.97383953E-05
   35.7599983      -4.30146574E-05
   35.8800011      -3.60805789E-05
   36.0000000      -2.89367781E-05
   36.1199989      -2.15841301E-05
   36.2400017      -1.40237735E-05
   36.3600006      -6.25713801E-06
   36.4799995       1.71407737E-06
   36.5999985       9.88789543E-06
   36.7200012       1.82620897E-05
   36.8400002       2.68341682E-05
   36.9599991       3.56013807E-05
   37.0800018       4.45607075E-05
   37.2000008       5.37088490E-05
   37.3199997       6.30422001E-05
   37.4399986       7.25568752E-05
   37.5600014       8.22487636E-05
   37.6800003       9.21134269E-05
   37.7999992       1.02146172E-04
   37.9199982       1.12342037E-04
   38.0400009       1.22695768E-04
   38.1599998       1.33201800E-04
   38.2799988       1.43854224E-04
   38.4000015       1.54646812E-04
   38.5200005       1.65573045E-04
   38.6399994       1.76626068E-04
   38.7599983       1.87798811E-04
   38.8800011       1.99083996E-04
   39.0000000       2.10474129E-04
   39.1199989       2.21961483E-04
   39.2400017       2.33538027E-04
   39.3600006       2.45195493E-04
   39.4799995       2.56925327E-04
   39.5999985       2.68718723E-04
   39.7200012       2.80566514E-04
   39.8400002       2.92459445E-04
   39.9599991       3.04387970E-04
   40.0800018       3.16342455E-04
   40.2000008       3.28313094E-04
   40.3199997       3.40289844E-04
   40.4399986       3.52262548E-04
   40.5600014       3.64220905E-04
   40.6800003       3.76154378E-04
   40.7999992       3.88052285E-04
   40.9199982       3.99903802E-04
   41.0400009       4.11698013E-04
   41.1599998       4.23423975E-04
   41.2799988       4.35070542E-04
   41.4000015       4.46626567E-04
   41.5200005       4.58080845E-04
   41.6399994       4.69422084E-04
   41.7599983       4.80638962E-04
   41.8800011       4.91720159E-04
   42.0000000       5.02654410E-04
   42.1199989       5.13430452E-04
   42.2400017       5.24037110E-04
   42.3600006       5.34463383E-04
   42.4799995       5.44698152E-04
   42.5999985       5.54730475E-04
   42.7200012       5.64549409E-04
   42.8400002       5.74144244E-04
   42.9599991       5.83504385E-04
   43.0800018       5.92619297E-04
   43.2000008       6.01478736E-04
   43.3199997       6.10072748E-04
   43.4399986       6.18391379E-04
   43.5600014       6.26425142E-04
   43.6800003       6.34164608E-04
   43.7999992       6.41600578E-04
   43.9199982       6.48724206E-04
   44.0400009       6.55526877E-04
   44.1599998       6.62000151E-04
   44.2799988       6.68136170E-04
   44.4000015       6.73927250E-04
   44.5200005       6.79366058E-04
   44.6399994       6.84445899E-04
   44.7599983       6.89160195E-04
   44.8800011       6.93502778E-04
   45.0000000       6.97468116E-04
   45.1199989       7.01050856E-04
   45.2400017       7.04246224E-04
   45.3600006       7.07049854E-04
   45.4799995       7.09457847E-04
   45.5999985       7.11466593E-04
   45.7200012       7.13073066E-04
   45.8400002       7.14274473E-04
   45.9599991       7.15068774E-04
   46.0800018       7.15454342E-04
   46.2000008       7.15430011E-04
   46.3199997       7.14995200E-04
   46.4399986       7.14149850E-04
   46.5600014       7.12894427E-04
   46.6800003       7.11229863E-04
   46.7999992       7.09157554E-04
   46.9199982       7.06679653E-04
   47.0400009       7.03798549E-04
   47.1599998       7.00517150E-04
   47.2799988       6.96839066E-04
   47.4000015       6.92768255E-04
   47.5200005       6.88309257E-04
   47.6399994       6.83467137E-04
   47.7599983       6.78247306E-04
   47.8800011       6.72655762E-04
   48.0000000       6.66698965E-04
   48.1199989       6.60383783E-04
   48.2400017       6.53717550E-04
   48.3600006       6.46708126E-04
   48.4799995       6.39363483E-04
   48.5999985       6.31692354E-04
   48.7200012       6.23703760E-04
   48.8400002       6.15407247E-04
   48.9599991       6.06812537E-04
   49.0800018       5.97929931E-04
   49.2000008       5.88769966E-04
   49.3199997       5.79343643E-04
   49.4399986       5.69662312E-04
   49.5600014       5.59737440E-04
   49.6800003       5.49580902E-04
   49.7999992       5.39204746E-04
   49.9199982       5.28621313E-04
   50.0400009       5.17843000E-04
   50.1599998       5.06882439E-04
   50.2799988       4.95752378E-04
   50.4000015       4.84465825E-04
   50.5200005       4.73035907E-04
   50.6399994       4.61476011E-04
   50.7599983       4.49799612E-04
   50.8800011       4.38020215E-04
   51.0000000       4.26151528E-04
   51.1199989       4.14207170E-04
   51.2400017       4.02200880E-04
   51.3600006       3.90146160E-04
   51.4799995       3.78056488E-04
   51.5999985       3.65945307E-04
   51.7200012       3.53825802E-04
   51.8400002       3.41711246E-04
   51.9599991       3.29614675E-04
   52.0800018       3.17549187E-04
   52.2000008       3.05527734E-04
   52.3199997       2.93563062E-04
   52.4399986       2.81667832E-04
   52.5600014       2.69854412E-04
   52.6800003       2.58134882E-04
   52.7999992       2.46520882E-04
   52.9199982       2.35023865E-04
   53.0400009       2.23654919E-04
   53.1599998       2.12424842E-04
   53.2799988       2.01344155E-04
   53.4000015       1.90423132E-04
   53.5200005       1.79671624E-04
   53.6399994       1.69099178E-04
   53.7599983       1.58714902E-04
   53.8800011       1.48527441E-04
   54.0000000       1.38545103E-04
   54.1199989       1.28775762E-04
   54.2400017       1.19226934E-04
   54.3600006       1.09905763E-04
   54.4799995       1.00818979E-04
   54.5999985       9.19728700E-05
   54.7200012       8.33732047E-05
   54.8400002       7.50252730E-05
   54.9599991       6.69338478E-05
   55.0800018       5.91031967E-05
   55.2000008       5.15371576E-05
   55.3199997       4.42391247E-05
   55.4399986       3.72120994E-05
   55.5600014       3.04586647E-05
   55.6800003       2.39809560E-05
   55.7999992       1.77806414E-05
   55.9199982       1.18589051E-05
   56.0400009       6.21645404E-06
   56.1599998       8.53525137E-07
   56.2799988      -4.23007077E-06
   56.4000015      -9.03492855E-06
   56.5200005      -1.35620312E-05
   56.6399994      -1.78127466E-05
   56.7599983      -2.17888446E-05
   56.8800011      -2.54925035E-05
   57.0000000      -2.89263098E-05
   57.1199989      -3.20932595E-05
   57.2400017      -3.49967231E-05
   57.3600006      -3.76404205E-05
   57.4799995      -4.00283971E-05
   57.5999985      -4.21649893E-05
   57.7200012      -4.40548138E-05
   57.8400002      -4.57027709E-05
   57.9599991      -4.71140374E-05
   58.0800018      -4.82940595E-05
   58.2000008      -4.92485633E-05
   58.3199997      -4.99835078E-05
   58.4399986      -5.05050994E-05
   58.5600014      -5.08197554E-05
   58.6800003      -5.09340825E-05
   58.7999992      -5.08548546E-05
   58.9199982      -5.05889948E-05
   59.0400009      -5.01435534E-05
   59.1599998      -4.95256900E-05
   59.2799988      -4.87426696E-05
   59.4000015      -4.78018446E-05
   59.5200005      -4.67106620E-05
   59.6399994      -4.54766632E-05
   59.7599983      -4.41074517E-05
   59.8800011      -4.26106890E-05
   60.0000000      -4.09940440E-05
   60.1199989      -3.92651637E-05
   60.2400017      -3.74316296E-05
   60.3600006      -3.55009470E-05
   60.4799995      -3.34805591E-05
   60.5999985      -3.13778619E-05
   60.7200012      -2.92002442E-05
   60.8400002      -2.69550856E-05
   60.9599991      -2.46497439E-05
   61.0800018      -2.22915114E-05
   61.2000008      -1.98875587E-05
   61.3199997      -1.74448833E-05
   61.4399986      -1.49702646E-05
   61.5600014      -1.24702783E-05
   61.6800003      -9.95130995E-06
   61.7999992      -7.41959138E-06
   61.9199982      -4.88122669E-06
   62.0400009      -2.34219237E-06
   62.1599998       1.91680272E-07
   62.2799988       2.71473914E-06
   62.4000015       5.22154050E-06
   62.5200005       7.70686711E-06
   62.6399994       1.01657261E-05
   62.7599983       1.25933375E-05
   62.8800011       1.49851085E-05
   63.0000000       1.73366443E-05
   63.1199989       1.96437431E-05
   63.2400017       2.19024223E-05
   63.3600006       2.41089401E-05
   63.4799995       2.62598041E-05
   63.5999985       2.83517857E-05
   63.7200012       3.03818833E-05
   63.8400002       3.23473250E-05
   63.9599991       3.42455423E-05
   64.0800018       3.60741651E-05
   64.1999969       3.78310360E-05
   64.3199997       3.95142160E-05
   64.4400024       4.11219771E-05
   64.5599976       4.26528204E-05
   64.6800003       4.41054617E-05
   64.8000031       4.54787878E-05
   64.9199982       4.67718928E-05
   65.0400009       4.79840455E-05
   65.1600037       4.91146893E-05
   65.2799988       5.01634677E-05
   65.4000015       5.11301914E-05
   65.5199966       5.20148678E-05
   65.6399994       5.28176897E-05
   65.7600021       5.35390063E-05
   65.8799973       5.41793379E-05
   66.0000000       5.47393538E-05
   66.1200027       5.52198799E-05
   66.2399979       5.56218911E-05
   66.3600006       5.59465152E-05
   66.4800034       5.61949964E-05
   66.5999985       5.63686954E-05
   66.7200012       5.64690672E-05
   66.8399963       5.64976399E-05
   66.9599991       5.64560069E-05
   67.0800018       5.63458416E-05
   67.1999969       5.61688976E-05
   67.3199997       5.59270193E-05
   67.4400024       5.56221457E-05
   67.5599976       5.52563179E-05
   67.6800003       5.48316566E-05
   67.8000031       5.43503556E-05
   67.9199982       5.38146596E-05
   68.0400009       5.32268423E-05
   68.1600037       5.25892028E-05
   68.2799988       5.19040368E-05
   68.4000015       5.11736544E-05
   68.5199966       5.04003583E-05
   68.6399994       4.95864733E-05
   68.7600021       4.87343168E-05
   68.8799973       4.78462352E-05
   69.0000000       4.69245606E-05
   69.1200027       4.59716466E-05
   69.2399979       4.49898107E-05
   69.3600006       4.39813412E-05
   69.4800034       4.29484971E-05
   69.5999985       4.18935051E-05
   69.7200012       4.08185733E-05
   69.8399963       3.97258882E-05
   69.9599991       3.86176325E-05
   70.0800018       3.74959636E-05
   70.1999969       3.63629988E-05
   70.3199997       3.52207680E-05
   70.4400024       3.40712359E-05
   70.5599976       3.29162540E-05
   70.6800003       3.17575905E-05
   70.8000031       3.05969588E-05
   70.9199982       2.94360634E-05
   71.0400009       2.82765795E-05
   71.1600037       2.71201880E-05
   71.2799988       2.59685366E-05
   71.4000015       2.48232100E-05
   71.5199966       2.36856995E-05
   71.6399994       2.25573785E-05
   71.7600021       2.14395150E-05
   71.8799973       2.03332929E-05
   72.0000000       1.92398329E-05
   72.1200027       1.81602391E-05
   72.2399979       1.70955900E-05
   72.3600006       1.60469353E-05
   72.4800034       1.50152709E-05
   72.5999985       1.40015018E-05
   72.7200012       1.30064236E-05