  -30.0000000       0.00000000    
  -29.8799992       0.00000000    
  -29.7600002       0.00000000    
  -29.6399994       0.00000000    
  -29.5200005       0.00000000    
  -29.3999996       0.00000000    
  -29.2800007       0.00000000    
  -29.1599998       0.00000000    
  -29.0400009       0.00000000    
  -28.9200001       0.00000000    
  -28.7999992       0.00000000    
  -28.6800003       1.96181785E-44
  -28.5599995       1.17709071E-43
  -28.4400005      -1.24995823E-42
  -28.3199997      -1.92468344E-41
  -28.2000008      -1.16962179E-40
  -28.0799999      -3.67419056E-40
  -27.9599991      -1.20182363E-40
  -27.8400002       5.09915696E-39
  -27.7199993       3.01462684E-38
  -27.6000004       1.01362566E-37
  -27.4799995       2.14573502E-37
  -27.3600006       1.83228003E-37
  -27.2399998      -6.19492886E-37
  -27.1200008      -3.28043782E-36
  -27.0000000      -8.20573261E-36
  -26.8799992      -1.19063472E-35
  -26.7600002      -3.26746068E-36
  -26.6399994       3.30216682E-35
  -26.5200005       9.28712398E-35
  -26.3999996       1.06509534E-34
  -26.2800007      -8.71181076E-35
  -26.1599998      -6.27074349E-34
  -26.0400009      -1.23834408E-33
  -25.9200001      -6.24747238E-34
  -25.7999992       3.71706889E-33
  -25.6800003       1.38855138E-32
  -25.5599995       2.67731416E-32
  -25.4400005       2.68916285E-32
  -25.3199997      -1.70471660E-32
  -25.2000008      -1.39312690E-31
  -25.0799999      -3.35320813E-31
  -24.9599991      -4.94291049E-31
  -24.8400002      -3.48256165E-31
  -24.7199993       4.74220987E-31
  -24.6000004       2.19031593E-30
  -24.4799995       4.38845670E-30
  -24.3600006       5.54145340E-30
  -24.2399998       2.99111346E-30
  -24.1200008      -5.98428225E-30
  -24.0000000      -2.17322732E-29
  -23.8799992      -3.90758336E-29
  -23.7600002      -4.54166480E-29
  -23.6399994      -2.28974022E-29
  -23.5200005       4.33209203E-29
  -23.3999996       1.51534262E-28
  -23.2800007       2.69800926E-28
  -23.1599998       3.30139252E-28
  -23.0400009       2.37779620E-28
  -22.9200001      -1.02158318E-28
  -22.7999992      -7.42389756E-28
  -22.6800003      -1.63468600E-27
  -22.5599995      -2.54469907E-27
  -22.4400005      -2.93333344E-27
  -22.3199997      -1.84707544E-27
  -22.2000008       2.01969346E-27
  -22.0799999       9.77671142E-27
  -21.9599991       2.09687780E-26
  -21.8400002       3.14165211E-26
  -21.7199993       3.12467620E-26
  -21.6000004       5.44004335E-27
  -21.4799995      -5.99076810E-26
  -21.3600006      -1.63573107E-25
  -21.2399998      -2.70095595E-25
  -21.1200008      -2.96342551E-25
  -21.0000000      -1.22622302E-25
  -20.8799992       3.52091129E-25
  -20.7600002       1.10686563E-24
  -20.6399994       1.87950410E-24
  -20.5200005       2.11050032E-24
  -20.3999996       1.06009840E-24
  -20.2800007      -1.81909925E-24
  -20.1599998      -6.29025971E-24
  -20.0400009      -1.07586633E-23
  -19.9200001      -1.21557738E-23
  -19.7999992      -6.77003348E-24
  -19.6800003       7.75634153E-24
  -19.5599995       2.96978458E-23
  -19.4400005       5.10819527E-23
  -19.3199997       5.80089940E-23
  -19.2000008       3.51190146E-23
  -19.0799999      -2.57219805E-23
  -18.9599991      -1.15216745E-22
  -18.8400002      -2.00472300E-22
  -18.7199993      -2.29484863E-22
  -18.6000004      -1.50225408E-22
  -18.4799995       5.86484951E-23
  -18.3600006       3.57615740E-22
  -18.2399998       6.35493723E-22
  -18.1200008       7.35140513E-22
  -18.0000000       5.19049776E-22
  -17.8799992      -4.50358703E-23
  -17.7600002      -8.20836555E-22
  -17.6399994      -1.51118557E-21
  -17.5200005      -1.76271138E-21
  -17.3999996      -1.34284058E-21
  -17.2800007      -3.05790911E-22
  -17.1599998       9.65605936E-22
  -17.0400009       1.92058696E-21
  -16.9200001       2.17377552E-21
  -16.7999992       1.83880917E-21
  -16.6800003       1.59912400E-21
  -16.5599995       2.30972031E-21
  -16.4400005       4.17198680E-21
  -16.3199997       5.89184312E-21
  -16.2000008       4.51884810E-21
  -16.0799999      -3.39101561E-21
  -15.9600000      -1.92159646E-20
  -15.8400002      -3.92346854E-20
  -15.7200003      -5.30206326E-20
  -15.6000004      -4.54418196E-20
  -15.4799995      -3.39861695E-21
  -15.3599997       7.40191779E-20
  -15.2399998       1.66344328E-19
  -15.1199999       2.29962776E-19
  -15.0000000       2.09394090E-19
  -14.8800001       6.24920736E-20
  -14.7600002      -2.07447812E-19
  -14.6400003      -5.27560130E-19
  -14.5200005      -7.57320609E-19
  -14.3999996      -7.28861873E-19
  -14.2799997      -3.22542846E-19
  -14.1599998       4.46434805E-19
  -14.0400000       1.37180377E-18
  -13.9200001       2.07396886E-18
  -13.8000002       2.11466780E-18
  -13.6800003       1.18998430E-18
  -13.5600004      -6.65313981E-19
  -13.4399996      -2.96130287E-18
  -13.3199997      -4.81606680E-18
  -13.1999998      -5.23259897E-18
  -13.0799999      -3.52776567E-18
  -12.9600000       2.45604787E-19
  -12.8400002       5.09148816E-18
  -12.7200003       9.24581461E-18
  -12.6000004       1.07638656E-17
  -12.4799995       8.35497252E-18
  -12.3599997       2.12984325E-18
  -12.2399998      -6.12456023E-18
  -12.1199999      -1.33979321E-17
  -12.0000000      -1.65972582E-17
  -11.8800001      -1.39780040E-17
  -11.7600002      -6.21618910E-18
  -11.6400003       3.51606644E-18
  -11.5200005       1.07624056E-17
  -11.3999996       1.19745999E-17
  -11.2799997       6.76665546E-18
  -11.1599998      -1.00003210E-18
  -11.0400000      -4.28941538E-18
  -10.9200001       3.73121487E-18
  -10.8000002       2.50578849E-17
  -10.6800003       5.30660020E-17
  -10.5600004       7.20128883E-17
  -10.4399996       6.14696641E-17
  -10.3199997       5.42599918E-18
  -10.1999998      -9.66372941E-17
  -10.0799999      -2.21420792E-16
  -9.96000004      -3.21418669E-16
  -9.84000015      -3.35900047E-16
  -9.72000027      -2.12751105E-16
  -9.60000038       6.43808898E-17
  -9.47999954       4.53513457E-16
  -9.35999966       8.47685745E-16
  -9.23999977       1.09279066E-15
  -9.11999989       1.03117452E-15
  -9.00000000       5.62268835E-16
  -8.88000011      -2.98042545E-16
  -8.76000023      -1.38278679E-15
  -8.64000034      -2.38496145E-15
  -8.52000046      -2.92398251E-15
  -8.39999962      -2.65913669E-15
  -8.27999973      -1.42190044E-15
  -8.15999985       6.75431484E-16
  -8.03999996       3.19969216E-15
  -7.92000008       5.45676836E-15
  -7.80000019       6.65491340E-15
  -7.67999983       6.13938501E-15
  -7.55999994       3.63480557E-15
  -7.44000006      -5.83864787E-16
  -7.32000017      -5.66158982E-15
  -7.19999981      -1.03096302E-14
  -7.07999992      -1.31104073E-14
  -6.96000004      -1.29092675E-14
  -6.84000015      -9.18481701E-15
  -6.71999979      -2.28484236E-15
  -6.59999990       6.55332789E-15
  -6.48000002       1.54191963E-14
  -6.36000013       2.21349665E-14
  -6.23999977       2.47501587E-14
  -6.11999989       2.20039780E-14
  -6.00000000       1.36524398E-14
  -5.88000011       6.03053789E-16
  -5.76000023      -1.51485727E-14
  -5.63999987      -3.07512161E-14
  -5.51999998      -4.28649222E-14
  -5.40000010      -4.81444650E-14
  -5.28000021      -4.38376007E-14
  -5.15999985      -2.84829940E-14
  -5.03999996      -2.63266162E-15
  -4.92000008       3.05720347E-14
  -4.80000019       6.52319385E-14
  -4.67999983       9.32123709E-14
  -4.55999994       1.05537764E-13
  -4.44000006       9.45993433E-14
  -4.32000017       5.67801421E-14
  -4.19999981      -5.22044955E-15
  -4.07999992      -8.12471293E-14
  -3.96000004      -1.54505572E-13
  -3.83999991      -2.04667704E-13
  -3.72000003      -2.12904686E-13
  -3.59999990      -1.67731145E-13
  -3.48000002      -6.99927990E-14
  -3.35999990       6.47722571E-14
  -3.24000001       2.07882512E-13
  -3.11999989       3.23241108E-13
  -3.00000000       3.76221623E-13
  -2.88000011       3.43524878E-13
  -2.75999999       2.21194604E-13
  -2.64000010       2.81803576E-14
  -2.51999998      -1.96106044E-13
  -2.40000010      -4.00130829E-13
  -2.27999997      -5.32591820E-13
  -2.16000009      -5.55580592E-13
  -2.03999996      -4.54940447E-13
  -1.91999996      -2.44885872E-13
  -1.79999995       3.44676375E-14
  -1.67999995       3.26012275E-13
  -1.55999994       5.68567437E-13
  -1.44000006       7.10383792E-13
  -1.32000005       7.19879831E-13
  -1.20000005       5.91312969E-13
  -1.08000004       3.44697713E-13
 -0.959999979       2.08584201E-14
 -0.839999974      -3.26487318E-13
 -0.720000029      -6.39538498E-13
 -0.600000024      -8.64586235E-13
 -0.479999989      -9.58910577E-13
 -0.360000014      -8.96462212E-13
 -0.239999995      -6.72546600E-13
 -0.119999997      -3.07267775E-13
  -1.11022302E-15   1.53291008E-13
  0.119999997       6.39736636E-13
  0.239999995       1.06730250E-12
  0.360000014       1.34933124E-12
  0.479999989       1.41469692E-12
  0.600000024       1.22557129E-12
  0.720000029       7.90708102E-13
  0.839999974       1.69643257E-13
  0.959999979      -5.34861814E-13
   1.08000004      -1.19562661E-12
   1.20000005      -1.68712364E-12
   1.32000005      -1.91231514E-12
   1.44000006      -1.82317074E-12
   1.55999994      -1.42950105E-12
   1.67999995      -7.94265315E-13
   1.79999995      -1.76415330E-14
   1.91999996       7.84599219E-13
   2.03999996       1.50169926E-12
   2.16000009       2.04212819E-12
   2.27999997       2.33933489E-12
   2.40000010       2.35086668E-12
   2.51999998       2.05552003E-12
   2.64000010       1.45368971E-12
   2.75999999       5.73850104E-13
   2.88000011      -5.16022988E-13
   3.00000000      -1.69765905E-12
   3.11999989      -2.80048706E-12
   3.24000001      -3.61592548E-12
   3.35999990      -3.93121169E-12
   3.48000002      -3.57922372E-12
   3.59999990      -2.49356373E-12
   3.72000003      -7.53280034E-13
   3.83999991       1.39899431E-12
   3.96000004       3.57713230E-12
   4.07999992       5.31258501E-12
   4.19999981       6.14827113E-12
   4.32000017       5.74716880E-12
   4.44000006       3.99140573E-12
   4.55999994       1.04713764E-12
   4.67999983      -2.62402816E-12
   4.80000019      -6.31619279E-12
   4.92000008      -9.18949205E-12
   5.03999996      -1.04238805E-11
   5.15999985      -9.39100967E-12
   5.28000021      -5.81348424E-12
   5.40000010       1.19329798E-13
   5.51999998       7.70458957E-12
   5.63999987       1.57639821E-11
   5.76000023       2.27683584E-11
   5.88000011       2.70352126E-11
   6.00000000       2.69700789E-11
   6.11999989       2.13112705E-11
   6.23999977       9.33243673E-12
   6.36000013      -9.03865437E-12
   6.48000002      -3.32130504E-11
   6.59999990      -6.20518498E-11
   6.71999979      -9.40770933E-11
   6.84000015      -1.27740846E-10
   6.96000004      -1.61696517E-10
   7.07999992      -1.95014394E-10
   7.19999981      -2.27296501E-10
   7.32000017      -2.58668892E-10
   7.44000006      -2.89660240E-10
   7.55999994      -3.21001808E-10
   7.67999983      -3.53402502E-10
   7.80000019      -3.87355814E-10
   7.92000008      -4.23024310E-10
   8.03999996      -4.60224303E-10
   8.15999985      -4.98506181E-10
   8.27999973      -5.37303368E-10
   8.39999962      -5.76105164E-10
   8.52000046      -6.14612028E-10
   8.64000034      -6.52837617E-10
   8.76000023      -6.91143032E-10
   8.88000011      -7.30208616E-10
   9.00000000      -7.70961850E-10
   9.11999989      -8.14488865E-10
   9.23999977      -8.61951288E-10
   9.35999966      -9.14520182E-10
   9.47999954      -9.73325753E-10
   9.60000038      -1.03940845E-09
   9.72000027      -1.11365550E-09
   9.84000015      -1.19671684E-09
   9.96000004      -1.28890365E-09
   10.0799999      -1.39009770E-09
   10.1999998      -1.49970891E-09
   10.3199997      -1.61672287E-09
   10.4399996      -1.73986492E-09
   10.5600004      -1.86787585E-09
   10.6800003      -1.99985917E-09
   10.8000002      -2.13561768E-09
   10.9200001      -2.27588703E-09
   11.0400000      -2.42237430E-09
   11.1599998      -2.57755128E-09
   11.2799997      -2.74422551E-09
   11.3999996      -2.92496849E-09
   11.5200005      -3.12155235E-09
   11.6400003      -3.33455974E-09
   11.7600002      -3.56329877E-09
   11.8800001      -3.80608878E-09
   12.0000000      -4.06086720E-09
   12.1199999      -4.32597247E-09
   12.2399998      -4.60089389E-09
   12.3599997      -4.88676255E-09
   12.4799995      -5.18644949E-09
   12.6000004      -5.50421353E-09
   12.7200003      -5.84501425E-09
   12.8400002      -6.21367757E-09
   12.9600000      -6.61415944E-09
   13.0799999      -7.04910974E-09
   13.1999998      -7.51983897E-09
   13.3199997      -8.02665845E-09
   13.4399996      -8.56943316E-09
   13.5600004      -9.14814535E-09
   13.6800003      -9.76325065E-09
   13.8000002      -1.04157403E-08
   13.9200001      -1.11069012E-08
   14.0400000      -1.18379093E-08
   14.1599998      -1.26094619E-08
   14.2799997      -1.34216114E-08
   14.3999996      -1.42739189E-08
   14.5200005      -1.51659254E-08
   14.6400003      -1.60977880E-08
   14.7600002      -1.70709136E-08
   14.8800001      -1.80883628E-08
   15.0000000      -1.91549159E-08
   15.1199999      -2.02767385E-08
   15.2399998      -2.14607123E-08
   15.3599997      -2.27136017E-08
   15.4799995      -2.40411957E-08
   15.6000004      -2.54476102E-08
   15.7200003      -2.69348526E-08
   15.8400002      -2.85027291E-08
   15.9600000      -3.01491632E-08
   16.0799999      -3.18708437E-08
   16.2000008      -3.36642145E-08
   16.3199997      -3.55266749E-08
   16.4400005      -3.74577667E-08
   16.5599995      -3.94601862E-08
   16.6800003      -4.15402930E-08
   16.7999992      -4.37079457E-08
   16.9200001      -4.59755292E-08
   17.0400009      -4.83562346E-08
   17.1599998      -5.08620026E-08
   17.2800007      -5.35014877E-08
   17.3999996      -5.62786404E-08
   17.5200005      -5.91923559E-08
   17.6399994      -6.22373548E-08
   17.7600002      -6.54061552E-08
   17.8799992      -6.86916621E-08
   18.0000000      -7.20896907E-08
   18.1200008      -7.56007736E-08
   18.2399998      -7.92305741E-08
   18.3600006      -8.29889828E-08
   18.4799995      -8.68880079E-08
   18.6000004      -9.09392526E-08
   18.7199993      -9.51515560E-08
   18.8400002      -9.95296787E-08
   18.9599991      -1.04074260E-07
   19.0799999      -1.08783063E-07
   19.2000008      -1.13653044E-07
   19.3199997      -1.18682500E-07
   19.4400005      -1.23872525E-07
   19.5599995      -1.29227345E-07
   19.6800003      -1.34753591E-07
   19.7999992      -1.40458553E-07
   19.9200001      -1.46348370E-07
   20.0400009      -1.52426750E-07
   20.1599998      -1.58694448E-07
   20.2800007      -1.65149984E-07
   20.3999996      -1.71790973E-07
   20.5200005      -1.78615636E-07
   20.6399994      -1.85623776E-07
   20.7600002      -1.92816714E-07
   20.8799992      -2.00196496E-07
   21.0000000      -2.07764259E-07
   21.1200008      -2.15518838E-07
   21.2399998      -2.23456183E-07
   21.3600006      -2.31569743E-07
   21.4799995      -2.39851943E-07
   21.6000004      -2.48296260E-07
   21.7199993      -2.56898971E-07
   21.8400002      -2.65659764E-07
   21.9599991      -2.74580827E-07
   22.0799999      -2.83664633E-07
   22.2000008      -2.92911238E-07
   22.3199997      -3.02315698E-07
   22.4400005      -3.11867154E-07
   22.5599995      -3.21549578E-07
   22.6800003      -3.31344239E-07
   22.7999992      -3.41233147E-07
   22.9200001      -3.51202203E-07
   23.0400009      -3.61242911E-07
   23.1599998      -3.71352002E-07
   23.2800007      -3.81529503E-07
   23.3999996      -3.91775131E-07
   23.5200005      -4.02085249E-07
   23.6399994      -4.12450760E-07
   23.7600002      -4.22857198E-07
   23.8799992      -4.33285948E-07
   24.0000000      -4.43716772E-07
   24.1200008      -4.54129946E-07
   24.2399998      -4.64507252E-07
   24.3600006      -4.74831040E-07
   24.4799995      -4.85082239E-07
   24.6000004      -4.95237600E-07
   24.7199993      -5.05268133E-07
   24.8400002      -5.15139561E-07
   24.9599991      -5.24814482E-07
   25.0799999      -5.34254809E-07
   25.2000008      -5.43426040E-07
   25.3199997      -5.52299127E-07
   25.4400005      -5.60851845E-07
   25.5599995      -5.69066685E-07
   25.6800003      -5.76928244E-07
   25.7999992      -5.84419411E-07
   25.9200001      -5.91519949E-07
   26.0400009      -5.98205247E-07
   26.1599998      -6.04447337E-07
   26.2800007      -6.10217285E-07
   26.3999996      -6.15487011E-07
   26.5200005      -6.20230310E-07
   26.6399994      -6.24421830E-07
   26.7600002      -6.28034968E-07
   26.8799992      -6.31037778E-07
   27.0000000      -6.33391096E-07
   27.1200008      -6.35046831E-07
   27.2399998      -6.35950528E-07
   27.3600006      -6.36045058E-07
   27.4799995      -6.35275853E-07
   27.6000004      -6.33595846E-07
   27.7199993      -6.30968543E-07
   27.8400002      -6.27366774E-07
   27.9599991      -6.22770187E-07
   28.0799999      -6.17160822E-07
   28.2000008      -6.10518157E-07
   28.3199997      -6.02815874E-07
   28.4400005      -5.94020491E-07
   28.5599995      -5.84092959E-07
   28.6800003      -5.72991951E-07
   28.7999992      -5.60678245E-07
   28.9200001      -5.47117338E-07
   29.0400009      -5.32281490E-07
   29.1599998      -5.16148702E-07
   29.2800007      -4.98700501E-07
   29.3999996      -4.79918526E-07
   29.5200005      -4.59783138E-07
   29.6399994      -4.38271769E-07
   29.7600002      -4.15360603E-07
   29.8799992      -3.91027811E-07
   30.0000000      -3.65256739E-07
   30.1200008      -3.38036642E-07
   30.2399998      -3.09361980E-07
   30.3600006      -2.79229539E-07
   30.4799995      -2.47635654E-07
   30.6000004      -2.14574328E-07
   30.7199993      -1.80036551E-07
   30.8400002      -1.44011238E-07
   30.9599991      -1.06489743E-07
   31.0799999      -6.74684344E-08
   31.2000008      -2.69531135E-08
   31.3199997       1.50380650E-08
   31.4400005       5.84747681E-08
   31.5599995       1.03316623E-07
   31.6800003       1.49516438E-07
   31.7999992       1.97025741E-07
   31.9200001       2.45798503E-07
   32.0400009       2.95792887E-07
   32.1599998       3.46971206E-07
   32.2799988       3.99296880E-07
   32.4000015       4.52730717E-07
   32.5200005       5.07225707E-07
   32.6399994       5.62724267E-07
   32.7599983       6.19157049E-07
   32.8800011       6.76444074E-07
   33.0000000       7.34498371E-07
   33.1199989       7.93229447E-07
   33.2400017       8.52546123E-07
   33.3600006       9.12357393E-07
   33.4799995       9.72572934E-07
   33.5999985       1.03309958E-06
   33.7200012       1.09383893E-06
   33.8400002       1.15468299E-06
   33.9599991       1.21551238E-06
   34.0800018       1.27619364E-06
   34.2000008       1.33658011E-06
   34.3199997       1.39651479E-06
   34.4399986       1.45583294E-06
   34.5600014       1.51436552E-06
   34.6800003       1.57194381E-06
   34.7999992       1.62840013E-06
   34.9199982       1.68356803E-06
   35.0400009       1.73728029E-06
   35.1599998       1.78936784E-06
   35.2799988       1.83965744E-06
   35.4000015       1.88796741E-06
   35.5200005       1.93410688E-06
   35.6399994       1.97787176E-06
   35.7599983       2.01904663E-06
   35.8800011       2.05740162E-06
   36.0000000       2.09269456E-06
   36.1199989       2.12467285E-06
   36.2400017       2.15307909E-06
   36.3600006       2.17765319E-06
   36.4799995       2.19813865E-06
   36.5999985       2.21428195E-06
   36.7200012       2.22583412E-06
   36.8400002       2.23254551E-06
   36.9599991       2.23416032E-06
   37.0800018       2.23041070E-06
   37.2000008       2.22101153E-06
   37.3199997       2.20565994E-06
   37.4399986       2.18403966E-06
   37.5600014       2.15582691E-06
   37.6800003       2.12070040E-06
   37.7999992       2.07834682E-06
   37.9199982       2.02846581E-06
   38.0400009       1.97076452E-06
   38.1599998       1.90495348E-06
   38.2799988       1.83073530E-06
   38.4000015       1.74779689E-06
   38.5200005       1.65580286E-06
   38.6399994       1.55439693E-06
   38.7599983       1.44320438E-06
   38.8800011       1.32184311E-06
   39.0000000       1.18993455E-06
   39.1199989       1.04711080E-06
   39.2400017       8.93019205E-07
   39.3600006       7.27321890E-07
   39.4799995       5.49691038E-07
   39.5999985       3.59799742E-07
   39.7200012       1.57313707E-07
   39.8400002      -5.81153721E-08
   39.9599991      -2.86852099E-07
   40.0800018      -5.29276690E-07
   40.2000008      -7.85778411E-07
   40.3199997      -1.05674894E-06
   40.4399986      -1.34257652E-06
   40.5600014      -1.64364246E-06
   40.6800003      -1.96032101E-06
   40.7999992      -2.29297984E-06
   40.9199982      -2.64198275E-06
   41.0400009      -3.00768988E-06
   41.1599998      -3.39045846E-06
   41.2799988      -3.79064136E-06
   41.4000015      -4.20858487E-06
   41.5200005      -4.64463164E-06
   41.6399994      -5.09912343E-06
   41.7599983      -5.57240446E-06
   41.8800011      -6.06482536E-06
   42.0000000      -6.57674263E-06
   42.1199989      -7.10852191E-06
   42.2400017      -7.66052744E-06
   42.3600006      -8.23312166E-06
   42.4799995      -8.82665881E-06
   42.5999985      -9.44148087E-06
   42.7200012      -1.00779216E-05
   42.8400002      -1.07363076E-05
   42.9599991      -1.14169625E-05
   43.0800018      -1.21202156E-05
   43.2000008      -1.28463971E-05
   43.3199997      -1.35958344E-05
   43.4399986      -1.43688476E-05
   43.5600014      -1.51657423E-05
   43.6800003      -1.59868068E-05
   43.7999992      -1.68323113E-05
   43.9199982      -1.77025140E-05
   44.0400009      -1.85976660E-05
   44.1599998      -1.95180182E-05
   44.2799988      -2.04638145E-05
   44.4000015      -2.14353058E-05
   44.5200005      -2.24327250E-05
   44.6399994      -2.34562976E-05
   44.7599983      -2.45062311E-05
   44.8800011      -2.55827072E-05
   45.0000000      -2.66858915E-05
   45.1199989      -2.78159332E-05
   45.2400017      -2.89729669E-05
   45.3600006      -3.01571126E-05
   45.4799995      -3.13684759E-05
   45.5999985      -3.26071495E-05
   45.7200012      -3.38731879E-05
   45.8400002      -3.51666495E-05
   45.9599991      -3.64875523E-05
   46.0800018      -3.78358964E-05
   46.2000008      -3.92116781E-05
   46.3199997      -4.06148865E-05
   46.4399986      -4.20455035E-05
   46.5600014      -4.35035181E-05
   46.6800003      -4.49889121E-05
   46.7999992      -4.65016528E-05
   46.9199982      -4.80416929E-05
   47.0400009      -4.96089597E-05
   47.1599998      -5.12033293E-05
   47.2799988      -5.28246492E-05
   47.4000015      -5.44727009E-05
   47.5200005      -5.61472370E-05
   47.6399994      -5.78479703E-05
   47.7599983      -5.95745878E-05
   47.8800011      -6.13267475E-05
   48.0000000      -6.31041112E-05
   48.1199989      -6.49063295E-05
   48.2400017      -6.67330169E-05
   48.3600006      -6.85838095E-05
   48.4799995      -7.04583144E-05
   48.5999985      -7.23561025E-05
   48.7200012      -7.42767152E-05
   48.8400002      -7.62196723E-05
   48.9599991      -7.81844283E-05
   49.0800018      -8.01703864E-05
   49.2000008      -8.21769136E-05
   49.3199997      -8.42033332E-05
   49.4399986      -8.62489323E-05
   49.5600014      -8.83129833E-05
   49.6800003      -9.03947075E-05
   49.7999992      -9.24933265E-05
   49.9199982      -9.46080399E-05
   50.0400009      -9.67379965E-05
   50.1599998      -9.88823158E-05
   50.2799988      -1.01040074E-04
   50.4000015      -1.03210281E-04
   50.5200005      -1.05391919E-04
   50.6399994      -1.07583888E-04
   50.7599983      -1.09785091E-04
   50.8800011      -1.11994355E-04
   51.0000000      -1.14210503E-04
   51.1199989      -1.16432326E-04
   51.2400017      -1.18658594E-04
   51.3600006      -1.20888042E-04
   51.4799995      -1.23119360E-04
   51.5999985      -1.25351246E-04
   51.7200012      -1.27582345E-04
   51.8400002      -1.29811262E-04
   51.9599991      -1.32036541E-04
   52.0800018      -1.34256756E-04
   52.2000008      -1.36470393E-04
   52.3199997      -1.38675910E-04
   52.4399986      -1.40871678E-04
   52.5600014      -1.43056037E-04
   52.6800003      -1.45227299E-04
   52.7999992      -1.47383689E-04
   52.9199982      -1.49523403E-04
   53.0400009      -1.51644592E-04
   53.1599998      -1.53745452E-04
   53.2799988      -1.55824062E-04
   53.4000015      -1.57878530E-04
   53.5200005      -1.59906922E-04
   53.6399994      -1.61907286E-04
   53.7599983      -1.63877630E-04
   53.8800011      -1.65815887E-04
   54.0000000      -1.67720034E-04
   54.1199989      -1.69588035E-04
   54.2400017      -1.71417778E-04
   54.3600006      -1.73207140E-04
   54.4799995      -1.74953952E-04
   54.5999985      -1.76655973E-04
   54.7200012      -1.78310962E-04
   54.8400002      -1.79916664E-04
   54.9599991      -1.81470736E-04
   55.0800018      -1.82970907E-04
   55.2000008      -1.84414850E-04
   55.3199997      -1.85800280E-04
   55.4399986      -1.87124897E-04
   55.5600014      -1.88386388E-04
   55.6800003      -1.89582439E-04
   55.7999992      -1.90710707E-04
   55.9199982      -1.91768850E-04
   56.0400009      -1.92754480E-04
   56.1599998      -1.93665153E-04
   56.2799988      -1.94498469E-04
   56.4000015      -1.95251981E-04
   56.5200005      -1.95923276E-04
   56.6399994      -1.96509951E-04
   56.7599983      -1.97009576E-04
   56.8800011      -1.97419795E-04
   57.0000000      -1.97738264E-04
   57.1199989      -1.97962610E-04
   57.2400017      -1.98090493E-04
   57.3600006      -1.98119611E-04
   57.4799995      -1.98047637E-04
   57.5999985      -1.97872243E-04
   57.7200012      -1.97591187E-04
   57.8400002      -1.97202142E-04
   57.9599991      -1.96702895E-04
   58.0800018      -1.96091234E-04
   58.2000008      -1.95364977E-04
   58.3199997      -1.94521985E-04
   58.4399986      -1.93560176E-04
   58.5600014      -1.92477484E-04
   58.6800003      -1.91271960E-04
   58.7999992      -1.89941624E-04
   58.9199982      -1.88484613E-04
   59.0400009      -1.86899066E-04
   59.1599998      -1.85183191E-04
   59.2799988      -1.83335185E-04
   59.4000015      -1.81353389E-04
   59.5200005      -1.79236158E-04
   59.6399994      -1.76981906E-04
   59.7599983      -1.74589120E-04
   59.8800011      -1.72056389E-04
   60.0000000      -1.69382329E-04
   60.1199989      -1.66565616E-04
   60.2400017      -1.63605058E-04
   60.3600006      -1.60499490E-04
   60.4799995      -1.57247880E-04
   60.5999985      -1.53849265E-04
   60.7200012      -1.50302803E-04
   60.8400002      -1.46607708E-04
   60.9599991      -1.42763311E-04
   61.0800018      -1.38768999E-04
   61.2000008      -1.34624323E-04
   61.3199997      -1.30328888E-04
   61.4399986      -1.25882449E-04
   61.5600014      -1.21284844E-04
   61.6800003      -1.16536008E-04
   61.7999992      -1.11635978E-04
   61.9199982      -1.06584885E-04
   62.0400009      -1.01382990E-04
   62.1599998      -9.60306570E-05
   62.2799988      -9.05283887E-05
   62.4000015      -8.48768250E-05
   62.5200005      -7.90767590E-05
   62.6399994      -7.31291148E-05
   62.7599983      -6.70349473E-05
   62.8800011      -6.07954025E-05
   63.0000000      -5.44117611E-05
   63.1199989      -4.78854490E-05
   63.2400017      -4.12180234E-05
   63.3600006      -3.44111977E-05
   63.4799995      -2.74668619E-05
   63.5999985      -2.03870586E-05
   63.7200012      -1.31739598E-05
   63.8400002      -5.82987013E-06
   63.9599991       1.64279436E-06
   64.0800018       9.24150299E-06
   64.1999969       1.69635823E-05
   64.3199997       2.48062024E-05
   64.4400024       3.27663547E-05
   64.5599976       4.08408341E-05
   64.6800003       4.90262355E-05
   64.8000031       5.73190191E-05
   64.9199982       6.57154815E-05
   65.0400009       7.42117991E-05
   65.1600037       8.28040575E-05
   65.2799988       9.14882185E-05
   65.4000015       1.00260084E-04
   65.5199966       1.09115303E-04
   65.6399994       1.18049335E-04
   65.7600021       1.27057516E-04
   65.8799973       1.36135015E-04
   66.0000000       1.45276950E-04
   66.1200027       1.54478257E-04
   66.2399979       1.63733828E-04
   66.3600006       1.73038294E-04
   66.4800034       1.82386226E-04
   66.5999985       1.91771935E-04
   66.7200012       2.01189599E-04
   66.8399963       2.10633239E-04
   66.9599991       2.20096772E-04
   67.0800018       2.29574012E-04
   67.1999969       2.39058703E-04
   67.3199997       2.48544558E-04
   67.4400024       2.58025131E-04
   67.5599976       2.67493917E-04
   67.6800003       2.76944251E-04
   67.8000031       2.86369410E-04
   67.9199982       2.95762584E-04
   68.0400009       3.05116730E-04
   68.1600037       3.14424979E-04
   68.2799988       3.23680200E-04
   68.4000015       3.32875381E-04
   68.5199966       3.42003361E-04
   68.6399994       3.51056893E-04
   68.7600021       3.60028818E-04
   68.8799973       3.68911744E-04
   69.0000000       3.77698307E-04
   69.1200027       3.86381114E-04
   69.2399979       3.94952833E-04
   69.3600006       4.03406011E-04
   69.4800034       4.11733316E-04
   69.5999985       4.19927354E-04
   69.7200012       4.27980820E-04
   69.8399963       4.35886323E-04
   69.9599991       4.43636498E-04
   70.0800018       4.51224070E-04
   70.1999969       4.58641793E-04
   70.3199997       4.65882535E-04
   70.4400024       4.72939311E-04
   70.5599976       4.79805254E-04
   70.6800003       4.86473466E-04
   70.8000031       4.92937223E-04
   70.9199982       4.99189773E-04
   71.0400009       5.05224336E-04
   71.1600037       5.11034566E-04
   71.2799988       5.16613945E-04
   71.4000015       5.21956361E-04
   71.5199966       5.27055759E-04
   71.6399994       5.31906262E-04
   71.7600021       5.36502281E-04
   71.8799973       5.40838228E-04
   72.0000000       5.44908922E-04
   72.1200027       5.48709184E-04
   72.2399979       5.52234240E-04
   72.3600006       5.55479317E-04
   72.4800034       5.58440050E-04
   72.5999985       5.61112131E-04
   72.7200012       5.63491776E-04