  -30.0000000       0.00000000    
  -29.8799992       0.00000000    
  -29.7600002       0.00000000    
  -29.6399994       0.00000000    
  -29.5200005       0.00000000    
  -29.3999996       0.00000000    
  -29.2800007       0.00000000    
  -29.1599998       0.00000000    
  -29.0400009       0.00000000    
  -28.9200001       0.00000000    
  -28.7999992      -3.51725915E-43
  -28.6800003       1.08170713E-39
  -28.5599995       1.21062546E-38
  -28.4400005       4.59642992E-38
  -28.3199997      -6.34839772E-38
  -28.2000008      -1.47486838E-36
  -28.0799999      -7.46088359E-36
  -27.9599991      -1.88929450E-35
  -27.8400002      -4.83691352E-36
  -27.7199993       1.75371968E-34
  -27.6000004       8.52240751E-34
  -27.4799995       2.34073362E-33
  -27.3600006       3.80324071E-33
  -27.2399998       6.57003216E-34
  -27.1200008      -1.80184373E-32
  -27.0000000      -6.55755460E-32
  -26.8799992      -1.34996828E-31
  -26.7600002      -1.48281113E-31
  -26.6399994       9.95213484E-32
  -26.5200005       9.07844631E-31
  -26.3999996       2.37575740E-30
  -26.2800007       3.69936761E-30
  -26.1599998       2.25195095E-30
  -26.0400009      -6.58258405E-30
  -25.9200001      -2.68792744E-29
  -25.7999992      -5.48635872E-29
  -25.6800003      -6.72720649E-29
  -25.5599995      -1.26531656E-29
  -25.4400005       1.77057709E-28
  -25.3199997       5.31100701E-28
  -25.2000008       9.28991761E-28
  -25.0799999       9.69357037E-28
  -24.9599991      -6.21077861E-29
  -24.8400002      -2.92098592E-27
  -24.7199993      -7.63229551E-27
  -24.6000004      -1.22579255E-26
  -24.4799995      -1.17949912E-26
  -24.3600006       1.45335931E-27
  -24.2399998       3.42357405E-26
  -24.1200008       8.43430913E-26
  -24.0000000       1.29875286E-25
  -23.8799992       1.22236105E-25
  -23.7600002      -5.71584345E-27
  -23.6399994      -3.04205054E-25
  -23.5200005      -7.40960334E-25
  -23.3999996      -1.12571940E-24
  -23.2800007      -1.07726352E-24
  -23.1599998      -1.09595275E-25
  -23.0400009       2.09918628E-24
  -22.9200001       5.27069880E-24
  -22.7999992       8.08688609E-24
  -22.6800003       8.08175849E-24
  -22.5599995       2.27858646E-24
  -22.4400005      -1.11698523E-23
  -22.3199997      -3.05732163E-23
  -22.2000008      -4.85286908E-23
  -22.0799999      -5.17013316E-23
  -21.9599991      -2.44097719E-23
  -21.8400002       4.31676299E-23
  -21.7199993       1.43759739E-22
  -21.6000004       2.43551603E-22
  -21.4799995       2.81832637E-22
  -21.3600006       1.86747118E-22
  -21.2399998      -9.07268485E-23
  -21.1200008      -5.31891573E-22
  -21.0000000      -1.01308340E-21
  -20.8799992      -1.30207134E-21
  -20.7600002      -1.11129262E-21
  -20.6399994      -2.13861807E-22
  -20.5200005       1.40164644E-21
  -20.3999996       3.39472581E-21
  -20.2800007       5.03250020E-21
  -20.1599998       5.31528450E-21
  -20.0400009       3.29373465E-21
  -19.9200001      -1.47173869E-21
  -19.7999992      -8.44228692E-21
  -19.6800003      -1.58163428E-20
  -19.5599995      -2.06307100E-20
  -19.4400005      -1.93841165E-20
  -19.3199997      -9.18648209E-21
  -19.2000008       1.07480295E-20
  -19.0799999       3.76503857E-20
  -18.9599991       6.43549231E-20
  -18.8400002       7.97253670E-20
  -18.7199993       7.09234351E-20
  -18.6000004       2.77252104E-20
  -18.4799995      -5.16396998E-20
  -18.3600006      -1.54690504E-19
  -18.2399998      -2.51570440E-19
  -18.1200008      -2.97764160E-19
  -18.0000000      -2.45130011E-19
  -17.8799992      -6.12528601E-20
  -17.7600002       2.47008901E-19
  -17.6399994       6.14563917E-19
  -17.5200005       9.15486692E-19
  -17.3999996       9.87228584E-19
  -17.2800007       6.84656514E-19
  -17.1599998      -4.61390037E-20
  -17.0400009      -1.09920495E-18
  -16.9200001      -2.18013377E-18
  -16.7999992      -2.84981609E-18
  -16.6800003      -2.65314232E-18
  -16.5599995      -1.31053450E-18
  -16.4400005       1.08886375E-18
  -16.3199997       3.97942365E-18
  -16.2000008       6.37863414E-18
  -16.0799999       7.15020629E-18
  -15.9600000       5.42722216E-18
  -15.8400002       1.06426102E-18
  -15.7200003      -5.06959476E-18
  -15.6000004      -1.11345260E-17
  -15.4799995      -1.47839625E-17
  -15.3599997      -1.39720235E-17
  -15.2399998      -7.85577564E-18
  -15.1199999       2.56468631E-18
  -15.0000000       1.44042469E-17
  -14.8800001       2.36099466E-17
  -14.7600002       2.63106334E-17
  -14.6400003       2.03723418E-17
  -14.5200005       6.55226059E-18
  -14.3999996      -1.13105029E-17
  -14.2799997      -2.73291276E-17
  -14.1599998      -3.56136525E-17
  -14.0400000      -3.26349089E-17
  -13.9200001      -1.89479120E-17
  -13.8000002       5.81686073E-19
  -13.6800003       1.84036949E-17
  -13.5600004       2.73591493E-17
  -13.4399996       2.40724960E-17
  -13.3199997       1.11522194E-17
  -13.1999998      -3.08407819E-18
  -13.0799999      -7.79561975E-18
  -12.9600000       5.08694322E-18
  -12.8400002       3.54280100E-17
  -12.7200003       7.18644590E-17
  -12.6000004       9.33389809E-17
  -12.4799995       7.58976726E-17
  -12.3599997       3.34748992E-18
  -12.2399998      -1.21698862E-16
  -12.1199999      -2.71026720E-16
  -12.0000000      -3.92485872E-16
  -11.8800001      -4.22123740E-16
  -11.7600002      -3.05241372E-16
  -11.6400003      -2.09922210E-17
  -11.5200005       3.97621671E-16
  -11.3999996       8.56960597E-16
  -11.2799997       1.21529153E-15
  -11.1599998       1.31564524E-15
  -11.0400000       1.03336103E-15
  -10.9200001       3.26529401E-16
  -10.8000002      -7.26160446E-16
  -10.6800003      -1.91526304E-15
  -10.5600004      -2.92808427E-15
  -10.4399996      -3.41461554E-15
  -10.3199997      -3.08123756E-15
  -10.1999998      -1.79083793E-15
  -10.0799999       3.58719274E-16
  -9.96000004       3.00563987E-15
  -9.84000015       5.56410310E-15
  -9.72000027       7.33603208E-15
  -9.60000038       7.67708058E-15
  -9.47999954       6.17961357E-15
  -9.35999966       2.82379228E-15
  -9.23999977      -1.95078019E-15
  -9.11999989      -7.28352112E-15
  -9.00000000      -1.20436472E-14
  -8.88000011      -1.50628513E-14
  -8.76000023      -1.53944952E-14
  -8.64000034      -1.25355472E-14
  -8.52000046      -6.56004656E-15
  -8.39999962       1.85863783E-15
  -8.27999973       1.15267411E-14
  -8.15999985       2.08782610E-14
  -8.03999996       2.81587904E-14
  -7.92000008       3.16301821E-14
  -7.80000019       2.98064796E-14
  -7.67999983       2.17431782E-14
  -7.55999994       7.38219114E-15
  -7.44000006      -1.20988475E-14
  -7.32000017      -3.40540821E-14
  -7.19999981      -5.44225547E-14
  -7.07999992      -6.82217276E-14
  -6.96000004      -7.05347984E-14
  -6.84000015      -5.78687827E-14
  -6.71999979      -2.95606198E-14
  -6.59999990       1.12330968E-14
  -6.48000002       5.74291117E-14
  -6.36000013       9.90800663E-14
  -6.23999977       1.25553674E-13
  -6.11999989       1.28370405E-13
  -6.00000000       1.03912599E-13
  -5.88000011       5.51056257E-14
  -5.76000023      -8.63909486E-15
  -5.63999987      -7.34554561E-14
  -5.51999998      -1.24631547E-13
  -5.40000010      -1.50808267E-13
  -5.28000021      -1.47450235E-13
  -5.15999985      -1.18354748E-13
  -5.03999996      -7.44869457E-14
  -4.92000008      -3.02668081E-14
  -4.80000019       1.66056987E-15
  -4.67999983       1.54733302E-14
  -4.55999994       1.51691980E-14
  -4.44000006       1.40911275E-14
  -4.32000017       3.05730952E-14
  -4.19999981       8.06047327E-14
  -4.07999992       1.69624067E-13
  -3.96000004       2.86244010E-13
  -3.83999991       4.00588606E-13
  -3.72000003       4.68870927E-13
  -3.59999990       4.44087611E-13
  -3.48000002       2.90686068E-13
  -3.35999990      -6.03032931E-16
  -3.24000001      -4.02314141E-13
  -3.11999989      -8.48167565E-13
  -3.00000000      -1.24152002E-12
  -2.88000011      -1.47378355E-12
  -2.75999999      -1.44938965E-12
  -2.64000010      -1.11167152E-12
  -2.51999998      -4.63216650E-13
  -2.40000010       4.24917453E-13
  -2.27999997       1.41837301E-12
  -2.16000009       2.33904389E-12
  -2.03999996       2.99571132E-12
  -1.91999996       3.21998201E-12
  -1.79999995       2.90064739E-12
  -1.67999995       2.01000262E-12
  -1.55999994       6.17339621E-13
  -1.44000006      -1.11284051E-12
  -1.32000005      -2.93792594E-12
  -1.20000005      -4.56762492E-12
  -1.08000004      -5.70426822E-12
 -0.959999979      -6.08848388E-12
 -0.839999974      -5.54490004E-12
 -0.720000029      -4.02176252E-12
 -0.600000024      -1.61773936E-12
 -0.479999989       1.41077536E-12
 -0.360000014       4.66731905E-12
 -0.239999995       7.66042004E-12
 -0.119999997       9.87367566E-12
  -1.11022302E-15   1.08524439E-11
  0.119999997       1.02928187E-11
  0.239999995       8.11472764E-12
  0.360000014       4.50084891E-12
  0.479999989      -1.12111519E-13
  0.600000024      -5.09391097E-12
  0.720000029      -9.72490751E-12
  0.839999974      -1.33238802E-11
  0.959999979      -1.53715877E-11
   1.08000004      -1.56010049E-11
   1.20000005      -1.40321001E-11
   1.32000005      -1.09427510E-11
   1.44000006      -6.78430879E-12
   1.55999994      -2.06559054E-12
   1.67999995       2.76219022E-12
   1.79999995       7.38773539E-12
   1.91999996       1.16676035E-11
   2.03999996       1.55947893E-11
   2.16000009       1.92206823E-11
   2.27999997       2.25563457E-11
   2.40000010       2.54834660E-11
   2.51999998       2.76997505E-11
   2.64000010       2.87104021E-11
   2.75999999       2.78612289E-11
   2.88000011       2.43959644E-11
   3.00000000       1.75148611E-11
   3.11999989       6.41529104E-12
   3.24000001      -9.69387678E-12
   3.35999990      -3.15981928E-11
   3.48000002      -6.00866995E-11
   3.59999990      -9.59427954E-11
   3.72000003      -1.39900605E-10
   3.83999991      -1.92563340E-10
   3.96000004      -2.54296390E-10
   4.07999992      -3.25121846E-10
   4.19999981      -4.04648037E-10
   4.32000017      -4.92064389E-10
   4.44000006      -5.86218907E-10
   4.55999994      -6.85776880E-10
   4.67999983      -7.89438626E-10
   4.80000019      -8.96177299E-10
   4.92000008      -1.00545328E-09
   5.03999996      -1.11736009E-09
   5.15999985      -1.23267330E-09
   5.28000021      -1.35278955E-09
   5.40000010      -1.47956603E-09
   5.51999998      -1.61509051E-09
   5.63999987      -1.76142323E-09
   5.76000023      -1.92036187E-09
   5.88000011      -2.09327311E-09
   6.00000000      -2.28102848E-09
   6.11999989      -2.48405230E-09
   6.23999977      -2.70248335E-09
   6.36000013      -2.93641245E-09
   6.48000002      -3.18615379E-09
   6.59999990      -3.45249207E-09
   6.71999979      -3.73685305E-09
   6.84000015      -4.04135969E-09
   6.96000004      -4.36875336E-09
   7.07999992      -4.72219641E-09
   7.19999981      -5.10498710E-09
   7.32000017      -5.52023760E-09
   7.44000006      -5.97058225E-09
   7.55999994      -6.45796927E-09
   7.67999983      -6.98357550E-09
   7.80000019      -7.54787433E-09
   7.92000008      -8.15085599E-09
   8.03999996      -8.79236861E-09
   8.15999985      -9.47254986E-09
   8.27999973      -1.01922746E-08
   8.39999962      -1.09535510E-08
   8.52000046      -1.17598091E-08
   8.64000034      -1.26159989E-08
   8.76000023      -1.35284761E-08
   8.88000011      -1.45046846E-08
   9.00000000      -1.55526418E-08
   9.11999989      -1.66803424E-08
   9.23999977      -1.78951396E-08
   9.35999966      -1.92032577E-08
   9.47999954      -2.06094786E-08
   9.60000038      -2.21171206E-08
   9.72000027      -2.37282887E-08
   9.84000015      -2.54443737E-08
   9.96000004      -2.72667506E-08
   10.0799999      -2.91975528E-08
   10.1999998      -3.12404573E-08
   10.3199997      -3.34013315E-08
   10.4399996      -3.56886929E-08
   10.5600004      -3.81138854E-08
   10.6800003      -4.06909493E-08
   10.8000002      -4.34361240E-08
   10.9200001      -4.63670986E-08
   11.0400000      -4.95019670E-08
   11.1599998      -5.28581197E-08
   11.2799997      -5.64511780E-08
   11.3999996      -6.02941768E-08
   11.5200005      -6.43972200E-08
   11.6400003      -6.87676192E-08
   11.7600002      -7.34106749E-08
   11.8800001      -7.83308991E-08
   12.0000000      -8.35335214E-08
   12.1199999      -8.90259315E-08
   12.2399998      -9.48188941E-08
   12.3599997      -1.00927146E-07
   12.4799995      -1.07369324E-07
   12.6000004      -1.14167392E-07
   12.7200003      -1.21345579E-07
   12.8400002      -1.28929230E-07
   12.9600000      -1.36943882E-07
   13.0799999      -1.45414717E-07
   13.1999998      -1.54366461E-07
   13.3199997      -1.63823728E-07
   13.4399996      -1.73811415E-07
   13.5600004      -1.84355130E-07
   13.6800003      -1.95481192E-07
   13.8000002      -2.07216431E-07
   13.9200001      -2.19587591E-07
   14.0400000      -2.32620906E-07
   14.1599998      -2.46341841E-07
   14.2799997      -2.60775494E-07
   14.3999996      -2.75947627E-07
   14.5200005      -2.91885925E-07
   14.6400003      -3.08621537E-07
   14.7600002      -3.26190360E-07
   14.8800001      -3.44633037E-07
   15.0000000      -3.63994531E-07
   15.1199999      -3.84322448E-07
   15.2399998      -4.05665048E-07
   15.3599997      -4.28068972E-07
   15.4799995      -4.51577904E-07
   15.6000004      -4.76231889E-07
   15.7200003      -5.02068360E-07
   15.8400002      -5.29123383E-07
   15.9600000      -5.57434021E-07
   16.0799999      -5.87040176E-07
   16.2000008      -6.17986245E-07
   16.3199997      -6.50321283E-07
   16.4400005      -6.84099007E-07
   16.5599995      -7.19376942E-07
   16.6800003      -7.56215343E-07
   16.7999992      -7.94676396E-07
   16.9200001      -8.34824164E-07
   17.0400009      -8.76724357E-07
   17.1599998      -9.20444165E-07
   17.2800007      -9.66051743E-07
   17.3999996      -1.01361559E-06
   17.5200005      -1.06320192E-06
   17.6399994      -1.11487316E-06
   17.7600002      -1.16868682E-06
   17.8799992      -1.22469362E-06
   18.0000000      -1.28293937E-06
   18.1200008      -1.34346749E-06
   18.2399998      -1.40632199E-06
   18.3600006      -1.47155231E-06
   18.4799995      -1.53921633E-06
   18.6000004      -1.60938259E-06
   18.7199993      -1.68212966E-06
   18.8400002      -1.75754496E-06
   18.9599991      -1.83572035E-06
   19.0799999      -1.91674826E-06
   19.2000008      -2.00071827E-06
   19.3199997      -2.08771303E-06
   19.4400005      -2.17780871E-06
   19.5599995      -2.27107375E-06
   19.6800003      -2.36757114E-06
   19.7999992      -2.46735976E-06
   19.9200001      -2.57049737E-06
   20.0400009      -2.67704081E-06
   20.1599998      -2.78704624E-06
   20.2800007      -2.90057142E-06
   20.3999996      -3.01767341E-06
   20.5200005      -3.13840928E-06
   20.6399994      -3.26283634E-06
   20.7600002      -3.39101143E-06
   20.8799992      -3.52299162E-06
   21.0000000      -3.65883329E-06
   21.1200008      -3.79859239E-06
   21.2399998      -3.94232302E-06
   21.3600006      -4.09007544E-06
   21.4799995      -4.24190011E-06
   21.6000004      -4.39784299E-06
   21.7199993      -4.55794952E-06
   21.8400002      -4.72226338E-06
   21.9599991      -4.89082868E-06
   22.0799999      -5.06368769E-06
   22.2000008      -5.24088273E-06
   22.3199997      -5.42244925E-06
   22.4400005      -5.60841636E-06
   22.5599995      -5.79880452E-06
   22.6800003      -5.99362147E-06
   22.7999992      -6.19286720E-06
   22.9200001      -6.39653263E-06
   23.0400009      -6.60460546E-06
   23.1599998      -6.81707343E-06
   23.2800007      -7.03392425E-06
   23.3999996      -7.25514701E-06
   23.5200005      -7.48072807E-06
   23.6399994      -7.71064697E-06
   23.7600002      -7.94487278E-06
   23.8799992      -8.18335957E-06
   24.0000000      -8.42604550E-06
   24.1200008      -8.67285780E-06
   24.2399998      -8.92371190E-06
   24.3600006      -9.17852321E-06
   24.4799995      -9.43720443E-06
   24.6000004      -9.69967186E-06
   24.7199993      -9.96584913E-06
   24.8400002      -1.02356571E-05
   24.9599991      -1.05090157E-05
   25.0799999      -1.07858350E-05
   25.2000008      -1.10660167E-05
   25.3199997      -1.13494489E-05
   25.4400005      -1.16360097E-05
   25.5599995      -1.19255683E-05
   25.6800003      -1.22179808E-05
   25.7999992      -1.25130991E-05
   25.9200001      -1.28107604E-05
   26.0400009      -1.31107909E-05
   26.1599998      -1.34129969E-05
   26.2800007      -1.37171673E-05
   26.3999996      -1.40230695E-05
   26.5200005      -1.43304542E-05
   26.6399994      -1.46390648E-05
   26.7600002      -1.49486377E-05
   26.8799992      -1.52589128E-05
   27.0000000      -1.55696343E-05
   27.1200008      -1.58805578E-05
   27.2399998      -1.61914359E-05
   27.3600006      -1.65020283E-05
   27.4799995      -1.68120823E-05
   27.6000004      -1.71213305E-05
   27.7199993      -1.74294946E-05
   27.8400002      -1.77362726E-05
   27.9599991      -1.80413535E-05
   28.0799999      -1.83444099E-05
   28.2000008      -1.86451052E-05
   28.3199997      -1.89431048E-05
   28.4400005      -1.92380685E-05
   28.5599995      -1.95296470E-05
   28.6800003      -1.98175003E-05
   28.7999992      -2.01012772E-05
   28.9200001      -2.03806267E-05
   29.0400009      -2.06551795E-05
   29.1599998      -2.09245518E-05
   29.2800007      -2.11883435E-05
   29.3999996      -2.14461325E-05
   29.5200005      -2.16974768E-05
   29.6399994      -2.19419235E-05
   29.7600002      -2.21790087E-05
   29.8799992      -2.24082723E-05
   30.0000000      -2.26292595E-05
   30.1200008      -2.28415320E-05
   30.2399998      -2.30446676E-05
   30.3600006      -2.32382499E-05
   30.4799995      -2.34218751E-05
   30.6000004      -2.35951302E-05
   30.7199993      -2.37575950E-05
   30.8400002      -2.39088276E-05
   30.9599991      -2.40483623E-05
   31.0799999      -2.41757207E-05
   31.2000008      -2.42904134E-05
   31.3199997      -2.43919494E-05
   31.4400005      -2.44798466E-05
   31.5599995      -2.45536357E-05
   31.6800003      -2.46128548E-05
   31.7999992      -2.46570598E-05
   31.9200001      -2.46857999E-05
   32.0400009      -2.46986237E-05
   32.1599998      -2.46950749E-05
   32.2799988      -2.46746749E-05
   32.4000015      -2.46369400E-05
   32.5200005      -2.45813753E-05
   32.6399994      -2.45074843E-05
   32.7599983      -2.44147814E-05
   32.8800011      -2.43027862E-05
   33.0000000      -2.41710259E-05
   33.1199989      -2.40190402E-05
   33.2400017      -2.38463708E-05
   33.3600006      -2.36525630E-05
   33.4799995      -2.34371637E-05
   33.5999985      -2.31997201E-05
   33.7200012      -2.29397792E-05
   33.8400002      -2.26568936E-05
   33.9599991      -2.23506249E-05
   34.0800018      -2.20205384E-05
   34.2000008      -2.16662156E-05
   34.3199997      -2.12872455E-05
   34.4399986      -2.08832280E-05
   34.5600014      -2.04537719E-05
   34.6800003      -1.99985006E-05
   34.7999992      -1.95170396E-05
   34.9199982      -1.90090195E-05
   35.0400009      -1.84740838E-05
   35.1599998      -1.79118670E-05
   35.2799988      -1.73220051E-05
   35.4000015      -1.67041344E-05
   35.5200005      -1.60578857E-05
   35.6399994      -1.53828896E-05
   35.7599983      -1.46787752E-05
   35.8800011      -1.39451840E-05
   36.0000000      -1.31817678E-05
   36.1199989      -1.23881919E-05
   36.2400017      -1.15641451E-05
   36.3600006      -1.07093383E-05
   36.4799995      -9.82350139E-06
   36.5999985      -8.90638785E-06
   36.7200012      -7.95776396E-06
   36.8400002      -6.97741143E-06
   36.9599991      -5.96511518E-06
   37.0800018      -4.92066283E-06
   37.2000008      -3.84383748E-06
   37.3199997      -2.73441538E-06
   37.4399986      -1.59216393E-06
   37.5600014      -4.16841829E-07
   37.6800003       7.91796367E-07
   37.7999992       2.03399236E-06
   37.9199982       3.30997523E-06
   38.0400009       4.61994978E-06
   38.1599998       5.96408518E-06
   38.2799988       7.34251171E-06
   38.4000015       8.75531532E-06
   38.5200005       1.02025442E-05
   38.6399994       1.16842193E-05
   38.7599983       1.32003443E-05
   38.8800011       1.47509281E-05
   39.0000000       1.63359891E-05
   39.1199989       1.79555664E-05
   39.2400017       1.96097189E-05
   39.3600006       2.12985142E-05
   39.4799995       2.30220194E-05
   39.5999985       2.47802800E-05
   39.7200012       2.65733088E-05
   39.8400002       2.84010766E-05
   39.9599991       3.02635144E-05
   40.0800018       3.21605148E-05
   40.2000008       3.40919505E-05
   40.3199997       3.60576814E-05
   40.4399986       3.80575657E-05
   40.5600014       4.00914687E-05
   40.6800003       4.21592595E-05
   40.7999992       4.42608143E-05
   40.9199982       4.63959877E-05
   41.0400009       4.85646196E-05
   41.1599998       5.07665136E-05
   41.2799988       5.30014440E-05
   41.4000015       5.52691454E-05
   41.5200005       5.75693339E-05
   41.6399994       5.99016785E-05
   41.7599983       6.22658699E-05
   41.8800011       6.46615736E-05
   42.0000000       6.70884619E-05
   42.1199989       6.95461931E-05
   42.2400017       7.20344251E-05
   42.3600006       7.45527941E-05
   42.4799995       7.71009290E-05
   42.5999985       7.96784152E-05
   42.7200012       8.22848233E-05
   42.8400002       8.49196658E-05
   42.9599991       8.75824699E-05
   43.0800018       9.02727043E-05
   43.2000008       9.29898306E-05
   43.3199997       9.57332813E-05
   43.4399986       9.85024890E-05
   43.5600014       1.01296857E-04
   43.6800003       1.04115774E-04
   43.7999992       1.06958607E-04
   43.9199982       1.09824694E-04
   44.0400009       1.12713358E-04
   44.1599998       1.15623880E-04
   44.2799988       1.18555530E-04
   44.4000015       1.21507539E-04
   44.5200005       1.24479135E-04
   44.6399994       1.27469495E-04
   44.7599983       1.30477827E-04
   44.8800011       1.33503272E-04
   45.0000000       1.36544986E-04
   45.1199989       1.39602111E-04
   45.2400017       1.42673744E-04
   45.3600006       1.45758982E-04
   45.4799995       1.48856881E-04
   45.5999985       1.51966422E-04
   45.7200012       1.55086571E-04
   45.8400002       1.58216208E-04
   45.9599991       1.61354255E-04
   46.0800018       1.64499535E-04
   46.2000008       1.67650927E-04
   46.3199997       1.70807252E-04
   46.4399986       1.73967346E-04
   46.5600014       1.77130030E-04
   46.6800003       1.80294126E-04
   46.7999992       1.83458411E-04
   46.9199982       1.86621619E-04
   47.0400009       1.89782484E-04
   47.1599998       1.92939682E-04
   47.2799988       1.96091874E-04
   47.4000015       1.99237576E-04
   47.5200005       2.02375362E-04
   47.6399994       2.05503762E-04
   47.7599983       2.08621233E-04
   47.8800011       2.11726277E-04
   48.0000000       2.14817337E-04
   48.1199989       2.17892884E-04
   48.2400017       2.20951362E-04
   48.3600006       2.23991141E-04
   48.4799995       2.27010605E-04
   48.5999985       2.30008111E-04
   48.7200012       2.32981940E-04
   48.8400002       2.35930420E-04
   48.9599991       2.38851790E-04
   49.0800018       2.41744274E-04
   49.2000008       2.44606053E-04
   49.3199997       2.47435353E-04
   49.4399986       2.50230281E-04
   49.5600014       2.52988975E-04
   49.6800003       2.55709456E-04
   49.7999992       2.58389860E-04
   49.9199982       2.61028210E-04
   50.0400009       2.63622438E-04
   50.1599998       2.66170595E-04
   50.2799988       2.68670672E-04
   50.4000015       2.71120662E-04
   50.5200005       2.73518555E-04
   50.6399994       2.75862316E-04
   50.7599983       2.78149906E-04
   50.8800011       2.80379259E-04
   51.0000000       2.82548252E-04
   51.1199989       2.84654758E-04
   51.2400017       2.86696595E-04
   51.3600006       2.88671610E-04
   51.4799995       2.90577475E-04
   51.5999985       2.92411918E-04
   51.7200012       2.94172816E-04
   51.8400002       2.95857899E-04
   51.9599991       2.97464983E-04
   52.0800018       2.98991858E-04
   52.2000008       3.00436339E-04
   52.3199997       3.01796215E-04
   52.4399986       3.03069246E-04
   52.5600014       3.04253277E-04
   52.6800003       3.05345951E-04
   52.7999992       3.06345115E-04
   52.9199982       3.07248556E-04
   53.0400009       3.08053975E-04
   53.1599998       3.08759190E-04
   53.2799988       3.09361931E-04
   53.4000015       3.09860014E-04
   53.5200005       3.10251198E-04
   53.6399994       3.10533243E-04
   53.7599983       3.10704083E-04
   53.8800011       3.10761447E-04
   54.0000000       3.10703268E-04
   54.1199989       3.10527452E-04
   54.2400017       3.10231990E-04
   54.3600006       3.09814815E-04
   54.4799995       3.09273950E-04
   54.5999985       3.08607356E-04
   54.7200012       3.07813141E-04
   54.8400002       3.06889269E-04
   54.9599991       3.05833906E-04
   55.0800018       3.04645189E-04
   55.2000008       3.03321314E-04
   55.3199997       3.01860651E-04
   55.4399986       3.00261454E-04
   55.5600014       2.98522151E-04
   55.6800003       2.96641170E-04
   55.7999992       2.94617086E-04
   55.9199982       2.92448356E-04
   56.0400009       2.90133699E-04
   56.1599998       2.87671806E-04
   56.2799988       2.85061396E-04
   56.4000015       2.82301364E-04
   56.5200005       2.79390631E-04
   56.6399994       2.76328210E-04
   56.7599983       2.73113255E-04
   56.8800011       2.69744894E-04
   57.0000000       2.66222458E-04
   57.1199989       2.62545305E-04
   57.2400017       2.58712884E-04
   57.3600006       2.54724728E-04
   57.4799995       2.50580546E-04
   57.5999985       2.46280135E-04
   57.7200012       2.41823305E-04
   57.8400002       2.37210115E-04
   57.9599991       2.32440652E-04
   58.0800018       2.27515106E-04
   58.2000008       2.22433795E-04
   58.3199997       2.17197245E-04
   58.4399986       2.11806051E-04
   58.5600014       2.06260971E-04
   58.6800003       2.00562892E-04
   58.7999992       1.94712877E-04
   58.9199982       1.88712089E-04
   59.0400009       1.82561824E-04
   59.1599998       1.76263551E-04
   59.2799988       1.69818799E-04
   59.4000015       1.63229255E-04
   59.5200005       1.56496782E-04
   59.6399994       1.49623360E-04
   59.7599983       1.42611199E-04
   59.8800011       1.35462644E-04
   60.0000000       1.28180196E-04
   60.1199989       1.20766534E-04
   60.2400017       1.13224451E-04
   60.3600006       1.05556908E-04
   60.4799995       9.77670134E-05
   60.5999985       8.98580256E-05
   60.7200012       8.18333428E-05
   60.8400002       7.36965303E-05
   60.9599991       6.54513206E-05
   61.0800018       5.71016026E-05
   61.2000008       4.86514218E-05
   61.3199997       4.01050020E-05
   61.4399986       3.14667195E-05
   61.5600014       2.27411074E-05
   61.6800003       1.39328758E-05
   61.7999992       5.04687387E-06
   61.9199982      -3.91187859E-06
   62.0400009      -1.29382333E-05
   62.1599998      -2.20269012E-05
   62.2799988      -3.11724580E-05
   62.4000015      -4.03693557E-05
   62.5200005      -4.96119246E-05
   62.6399994      -5.88943840E-05
   62.7599983      -6.82108221E-05
   62.8800011      -7.75552180E-05
   63.0000000      -8.69213982E-05
   63.1199989      -9.63030616E-05
   63.2400017      -1.05693776E-04
   63.3600006      -1.15086994E-04
   63.4799995      -1.24476093E-04
   63.5999985      -1.33854352E-04
   63.7200012      -1.43214958E-04
   63.8400002      -1.52551060E-04
   63.9599991      -1.61855729E-04
   64.0800018      -1.71121937E-04
   64.1999969      -1.80342671E-04
   64.3199997      -1.89510771E-04
   64.4400024      -1.98619091E-04
   64.5599976      -2.07660385E-04
   64.6800003      -2.16627435E-04
   64.8000031      -2.25512966E-04
   64.9199982      -2.34309729E-04
   65.0400009      -2.43010451E-04
   65.1600037      -2.51607853E-04
   65.2799988      -2.60094705E-04
   65.4000015      -2.68463773E-04
   65.5199966      -2.76707782E-04
   65.6399994      -2.84819689E-04
   65.7600021      -2.92792334E-04
   65.8799973      -3.00618762E-04
   66.0000000      -3.08291987E-04
   66.1200027      -3.15805082E-04
   66.2399979      -3.23151267E-04
   66.3600006      -3.30323732E-04
   66.4800034      -3.37315840E-04
   66.5999985      -3.44121014E-04
   66.7200012      -3.50732997E-04
   66.8399963      -3.57145531E-04
   66.9599991      -3.63352621E-04
   67.0800018      -3.69348418E-04
   67.1999969      -3.75127245E-04
   67.3199997      -3.80683574E-04
   67.4400024      -3.86012020E-04
   67.5599976      -3.91107373E-04
   67.6800003      -3.95964598E-04
   67.8000031      -4.00578952E-04
   67.9199982      -4.04945895E-04
   68.0400009      -4.09061060E-04
   68.1600037      -4.12920461E-04
   68.2799988      -4.16520255E-04
   68.4000015      -4.19856864E-04
   68.5199966      -4.22927085E-04
   68.6399994      -4.25727805E-04
   68.7600021      -4.28256317E-04
   68.8799973      -4.30510263E-04
   69.0000000      -4.32487519E-04
   69.1200027      -4.34186251E-04
   69.2399979      -4.35604947E-04
   69.3600006      -4.36742353E-04
   69.4800034      -4.37597540E-04
   69.5999985      -4.38169780E-04
   69.7200012      -4.38458694E-04
   69.8399963      -4.38464282E-04
   69.9599991      -4.38186835E-04
   70.0800018      -4.37626935E-04
   70.1999969      -4.36785573E-04
   70.3199997      -4.35664027E-04
   70.4400024      -4.34263959E-04
   70.5599976      -4.32587287E-04
   70.6800003      -4.30636253E-04
   70.8000031      -4.28413477E-04
   70.9199982      -4.25921869E-04
   71.0400009      -4.23164747E-04
   71.1600037      -4.20145690E-04
   71.2799988      -4.16868599E-04
   71.4000015      -4.13337810E-04
   71.5199966      -4.09557804E-04
   71.6399994      -4.05533472E-04
   71.7600021      -4.01269877E-04
   71.8799973      -3.96772433E-04
   72.0000000      -3.92046786E-04
   72.1200027      -3.87098931E-04
   72.2399979      -3.81935068E-04
   72.3600006      -3.76561686E-04
   72.4800034      -3.70985625E-04
   72.5999985      -3.65213840E-04
   72.7200012      -3.59253609E-04