  -30.0000000       0.00000000    
  -29.8799992       0.00000000    
  -29.7600002       0.00000000    
  -29.6399994       0.00000000    
  -29.5200005       0.00000000    
  -29.3999996       0.00000000    
  -29.2800007      -2.98019462E-31
  -29.1599998      -3.20749413E-30
  -29.0400009      -1.54025465E-29
  -28.9200001      -4.01498315E-29
  -28.7999992      -4.08183157E-29
  -28.6800003       1.10658253E-28
  -28.5599995       5.86713420E-28
  -28.4400005       1.23655825E-27
  -28.3199997       7.07951288E-28
  -28.2000008      -4.87290552E-27
  -28.0799999      -2.32393369E-26
  -27.9599991      -6.66413916E-26
  -27.8400002      -1.50441642E-25
  -27.7199993      -2.85145040E-25
  -27.6000004      -4.48818172E-25
  -27.4799995      -5.14634070E-25
  -27.3600006      -1.12627372E-25
  -27.2399998       1.52131333E-24
  -27.1200008       5.44548159E-24
  -27.0000000       1.20745433E-23
  -26.8799992       1.86997048E-23
  -26.7600002       1.56021225E-23
  -26.6399994      -1.64502269E-23
  -26.5200005      -1.00300565E-22
  -26.3999996      -2.38464574E-22
  -26.2800007      -3.67555186E-22
  -26.1599998      -3.09857420E-22
  -26.0400009       2.21351417E-22
  -25.9200001       1.47528349E-21
  -25.7999992       3.31345188E-21
  -25.6800003       4.72975089E-21
  -25.5599995       3.56991281E-21
  -25.4400005      -2.96075527E-21
  -25.3199997      -1.64170698E-20
  -25.2000008      -3.38806232E-20
  -25.0799999      -4.47356982E-20
  -24.9599991      -3.04816734E-20
  -24.8400002       2.85935691E-20
  -24.7199993       1.37809763E-19
  -24.6000004       2.66961531E-19
  -24.4799995       3.35349153E-19
  -24.3600006       2.21608355E-19
  -24.2399998      -1.84413727E-19
  -24.1200008      -8.86831915E-19
  -24.0000000      -1.67700168E-18
  -23.8799992      -2.08271133E-18
  -23.7600002      -1.45928464E-18
  -23.6399994       7.20109992E-19
  -23.5200005       4.40959645E-18
  -23.3999996       8.54494116E-18
  -23.2800007       1.09068644E-17
  -23.1599998       8.61250693E-18
  -23.0400009      -6.18532937E-19
  -22.9200001      -1.66587938E-17
  -22.7999992      -3.53479554E-17
  -22.6800003      -4.81216126E-17
  -22.5599995      -4.38996365E-17
  -22.4400005      -1.35504956E-17
  -22.3199997       4.40080567E-17
  -22.2000008       1.16425552E-16
  -22.0799999       1.76478838E-16
  -21.9599991       1.87400269E-16
  -21.8400002       1.15743029E-16
  -21.7199993      -5.08338717E-17
  -21.6000004      -2.87062192E-16
  -21.4799995      -5.23152483E-16
  -21.3600006      -6.54853877E-16
  -21.2399998      -5.73224094E-16
  -21.1200008      -2.09290764E-16
  -21.0000000       4.19368262E-16
  -20.8799992       1.17863226E-15
  -20.7600002       1.82285704E-15
  -20.6399994       2.04606335E-15
  -20.5200005       1.57668470E-15
  -20.3999996       2.96080102E-16
  -20.2800007      -1.65465726E-15
  -20.1599998      -3.82356475E-15
  -20.0400009      -5.49249621E-15
  -19.9200001      -5.83848333E-15
  -19.7999992      -4.19832981E-15
  -19.6800003      -3.79327109E-16
  -19.5599995       5.08224173E-15
  -19.4400005       1.08348050E-14
  -19.3199997       1.49013814E-14
  -19.2000008       1.51840278E-14
  -19.0799999       1.02105155E-14
  -18.9599991      -7.81324830E-17
  -18.8400002      -1.37989519E-14
  -18.7199993      -2.71672723E-14
  -18.6000004      -3.52962322E-14
  -18.4799995      -3.36975897E-14
  -18.3600006      -2.01109948E-14
  -18.2399998       3.97507226E-15
  -18.1200008       3.28238277E-14
  -18.0000000       5.74768572E-14
  -17.8799992       6.83207695E-14
  -17.7600002       5.85671580E-14
  -17.6399994       2.74705897E-14
  -17.5200005      -1.80804705E-14
  -17.3999996      -6.46181920E-14
  -17.2800007      -9.59491547E-14
  -17.1599998      -9.88344335E-14
  -17.0400009      -6.85642474E-14
  -16.9200001      -1.21551557E-14
  -16.7999992       5.25518756E-14
  -16.6800003       1.02237066E-13
  -16.5599995       1.16467843E-13
  -16.4400005       8.61856973E-14
  -16.3199997       1.89023771E-14
  -16.2000008      -6.19850512E-14
  -16.0799999      -1.24338474E-13
  -15.9600000      -1.38923622E-13
  -15.8400002      -9.15125655E-14
  -15.7200003       9.31029054E-15
  -15.6000004       1.32270131E-13
  -15.4799995       2.32363201E-13
  -15.3599997       2.66178545E-13
  -15.2399998       2.08336359E-13
  -15.1199999       6.28439561E-14
  -15.0000000      -1.35413070E-13
  -14.8800001      -3.30378303E-13
  -14.7600002      -4.62790830E-13
  -14.6400003      -4.90021760E-13
  -14.5200005      -4.00251989E-13
  -14.3999996      -2.15306478E-13
  -14.2799997       1.91889165E-14
  -14.1599998       2.52378820E-13
  -14.0400000       4.47457853E-13
  -13.9200001       5.92675594E-13
  -13.8000002       6.98063406E-13
  -13.6800003       7.78061968E-13
  -13.5600004       8.27395281E-13
  -13.4399996       8.02649830E-13
  -13.3199997       6.22389401E-13
  -13.1999998       1.93074696E-13
  -13.0799999      -5.42330666E-13
  -12.9600000      -1.54802625E-12
  -12.8400002      -2.65484032E-12
  -12.7200003      -3.55989890E-12
  -12.6000004      -3.88180243E-12
  -12.4799995      -3.26872882E-12
  -12.3599997      -1.53517477E-12
  -12.2399998       1.21495728E-12
  -12.1199999       4.52771848E-12
  -12.0000000       7.63963892E-12
  -11.8800001       9.63154643E-12
  -11.7600002       9.67097149E-12
  -11.6400003       7.28262936E-12
  -11.5200005       2.56478129E-12
  -11.3999996      -3.72793506E-12
  -11.2799997      -1.02840713E-11
  -11.1599998      -1.55142461E-11
  -11.0400000      -1.79478724E-11
  -10.9200001      -1.66411208E-11
  -10.8000002      -1.14750796E-11
  -10.6800003      -3.24775016E-12
  -10.5600004       6.47757542E-12
  -10.4399996       1.57301221E-11
  -10.3199997       2.25930021E-11
  -10.1999998       2.56340209E-11
  -10.0799999       2.41867654E-11
  -9.96000004       1.84192835E-11
  -9.84000015       9.20413745E-12
  -9.72000027      -2.13051256E-12
  -9.60000038      -1.40610587E-11
  -9.47999954      -2.50532650E-11
  -9.35999966      -3.36454024E-11
  -9.23999977      -3.84734501E-11
  -9.11999989      -3.83262970E-11
  -9.00000000      -3.23107478E-11
  -8.88000011      -2.01429828E-11
  -8.76000023      -2.48957777E-12
  -8.64000034       1.87974046E-11
  -8.52000046       4.07256000E-11
  -8.39999962       5.95954119E-11
  -8.27999973       7.17877771E-11
  -8.15999985       7.47070739E-11
  -8.03999996       6.75572584E-11
  -7.92000008       5.16163605E-11
  -7.80000019       2.97992117E-11
  -7.67999983       5.53769574E-12
  -7.55999994      -1.87153227E-11
  -7.44000006      -4.28426565E-11
  -7.32000017      -6.97186475E-11
  -7.19999981      -1.04767750E-10
  -7.07999992      -1.54377122E-10
  -6.96000004      -2.23541879E-10
  -6.84000015      -3.13478937E-10
  -6.71999979      -4.20088769E-10
  -6.59999990      -5.33984801E-10
  -6.48000002      -6.42365383E-10
  -6.36000013      -7.32390870E-10
  -6.23999977      -7.95148225E-10
  -6.11999989      -8.28952240E-10
  -6.00000000      -8.40794601E-10
  -5.88000011      -8.45234605E-10
  -5.76000023      -8.60812421E-10
  -5.63999987      -9.04903819E-10
  -5.51999998      -9.88542470E-10
  -5.40000010      -1.11287113E-09
  -5.28000021      -1.26846045E-09
  -5.15999985      -1.43785794E-09
  -5.03999996      -1.60067148E-09
  -4.92000008      -1.73962034E-09
  -4.80000019      -1.84561055E-09
  -4.67999983      -1.92018579E-09
  -4.55999994      -1.97456984E-09
  -4.44000006      -2.02569117E-09
  -4.32000017      -2.09062012E-09
  -4.19999981      -2.18139595E-09
  -4.07999992      -2.30203745E-09
  -3.96000004      -2.44869569E-09
  -3.83999991      -2.61270716E-09
  -3.72000003      -2.78519385E-09
  -3.59999990      -2.96128877E-09
  -3.48000002      -3.14223314E-09
  -3.35999990      -3.33449224E-09
  -3.24000001      -3.54629237E-09
  -3.11999989      -3.78310938E-09
  -3.00000000      -4.04417122E-09
  -2.88000011      -4.32172209E-09
  -2.75999999      -4.60369121E-09
  -2.64000010      -4.87897234E-09
  -2.51999998      -5.14326848E-09
  -2.40000010      -5.40297673E-09
  -2.27999997      -5.67509240E-09
  -2.16000009      -5.98257621E-09
  -2.03999996      -6.34642339E-09
  -1.91999996      -6.77722234E-09
  -1.79999995      -7.26957028E-09
  -1.67999995      -7.80200882E-09
  -1.55999994      -8.34331182E-09
  -1.44000006      -8.86360851E-09
  -1.32000005      -9.34679001E-09
  -1.20000005      -9.79974057E-09
  -1.08000004      -1.02546576E-08
 -0.959999979      -1.07628333E-08
 -0.839999974      -1.13811973E-08
 -0.720000029      -1.21556178E-08
 -0.600000024      -1.31063764E-08
 -0.479999989      -1.42208494E-08
 -0.360000014      -1.54562247E-08
 -0.239999995      -1.67517804E-08
 -0.119999997      -1.80469861E-08
  -1.11022302E-15  -1.92995255E-08
  0.119999997      -2.04973620E-08
  0.239999995      -2.16607461E-08
  0.360000014      -2.28336230E-08
  0.479999989      -2.40674680E-08
  0.600000024      -2.54033115E-08
  0.720000029      -2.68582738E-08
  0.839999974      -2.84214448E-08
  0.959999979      -3.00604768E-08
   1.08000004      -3.17364872E-08
   1.20000005      -3.34217134E-08
   1.32000005      -3.51133451E-08
   1.44000006      -3.68381663E-08
   1.55999994      -3.86460144E-08
   1.67999995      -4.05941236E-08
   1.79999995      -4.27278799E-08
   1.91999996      -4.50649793E-08
   2.03999996      -4.75889941E-08
   2.16000009      -5.02549824E-08
   2.27999997      -5.30053761E-08
   2.40000010      -5.57906077E-08
   2.51999998      -5.85869167E-08
   2.64000010      -6.14046058E-08
   2.75999999      -6.42834834E-08
   2.88000011      -6.72768081E-08
   3.00000000      -7.04295431E-08
   3.11999989      -7.37589190E-08
   3.24000001      -7.72450264E-08
   3.35999990      -8.08354699E-08
   3.48000002      -8.44632382E-08
   3.59999990      -8.80718503E-08
   3.72000003      -9.16390093E-08
   3.83999991      -9.51899750E-08
   3.96000004      -9.87952760E-08
   4.07999992      -1.02552690E-07
   4.19999981      -1.06558865E-07
   4.32000017      -1.10879768E-07
   4.44000006      -1.15529716E-07
   4.55999994      -1.20465856E-07
   4.67999983      -1.25599840E-07
   4.80000019      -1.30822528E-07
   4.92000008      -1.36033535E-07
   5.03999996      -1.41165586E-07
   5.15999985      -1.46196669E-07
   5.28000021      -1.51146395E-07
   5.40000010      -1.56059542E-07
   5.51999998      -1.60983618E-07
   5.63999987      -1.65948677E-07
   5.76000023      -1.70956582E-07
   5.88000011      -1.75982109E-07
   6.00000000      -1.80984358E-07
   6.11999989      -1.85922445E-07
   6.23999977      -1.90768716E-07
   6.36000013      -1.95514033E-07
   6.48000002      -2.00163782E-07
   6.59999990      -2.04726717E-07
   6.71999979      -2.09202014E-07
   6.84000015      -2.13570445E-07
   6.96000004      -2.17793101E-07
   7.07999992      -2.21817587E-07
   7.19999981      -2.25588693E-07
   7.32000017      -2.29057733E-07
   7.44000006      -2.32186736E-07
   7.55999994      -2.34944650E-07
   7.67999983      -2.37298366E-07
   7.80000019      -2.39202365E-07
   7.92000008      -2.40592726E-07
   8.03999996      -2.41388960E-07
   8.15999985      -2.41503500E-07
   8.27999973      -2.40855400E-07
   8.39999962      -2.39382103E-07
   8.52000046      -2.37043963E-07
   8.64000034      -2.33818298E-07
   8.76000023      -2.29684815E-07
   8.88000011      -2.24607348E-07
   9.00000000      -2.18519347E-07
   9.11999989      -2.11318920E-07
   9.23999977      -2.02876350E-07
   9.35999966      -1.93051989E-07
   9.47999954      -1.81718050E-07
   9.60000038      -1.68776936E-07
   9.72000027      -1.54168731E-07
   9.84000015      -1.37864333E-07
   9.96000004      -1.19846050E-07
   10.0799999      -1.00081522E-07
   10.1999998      -7.84987435E-08
   10.3199997      -5.49707302E-08
   10.4399996      -2.93139752E-08
   10.5600004      -1.30186861E-09
   10.6800003       2.93111508E-08
   10.8000002       6.27620977E-08
   10.9200001       9.92567024E-08
   11.0400000       1.38957773E-07
   11.1599998       1.81988526E-07
   11.2799997       2.28449252E-07
   11.3999996       2.78442570E-07
   11.5200005       3.32098352E-07
   11.6400003       3.89591548E-07
   11.7600002       4.51146775E-07
   11.8800001       5.17028013E-07
   12.0000000       5.87516979E-07
   12.1199999       6.62886691E-07
   12.2399998       7.43380099E-07
   12.3599997       8.29199621E-07
   12.4799995       9.20511923E-07
   12.6000004       1.01746696E-06
   12.7200003       1.12022553E-06
   12.8400002       1.22898530E-06
   12.9600000       1.34399875E-06
   13.0799999       1.46557534E-06
   13.1999998       1.59406829E-06
   13.3199997       1.72985028E-06
   13.4399996       1.87328567E-06
   13.5600004       2.02470892E-06
   13.6800003       2.18441392E-06
   13.8000002       2.35266043E-06
   13.9200001       2.52969312E-06
   14.0400000       2.71576687E-06
   14.1599998       2.91117067E-06
   14.2799997       3.11624103E-06
   14.3999996       3.33135745E-06
   14.5200005       3.55692646E-06
   14.6400003       3.79334961E-06
   14.7600002       4.04099637E-06
   14.8800001       4.30018190E-06
   15.0000000       4.57116903E-06
   15.1199999       4.85418832E-06
   15.2399998       5.14947851E-06
   15.3599997       5.45733383E-06
   15.4799995       5.77814444E-06
   15.6000004       6.11242012E-06
   15.7200003       6.46077751E-06
   15.8400002       6.82389964E-06
   15.9600000       7.20247408E-06
   16.0799999       7.59712884E-06
   16.2000008       8.00837552E-06
   16.3199997       8.43658836E-06
   16.4400005       8.88201612E-06
   16.5599995       9.34482887E-06
   16.6800003       9.82518304E-06
   16.7999992       1.03232915E-05
   16.9200001       1.08394725E-05
   17.0400009       1.13741735E-05
   17.1599998       1.19279593E-05
   17.2800007       1.25014767E-05
   17.3999996       1.30954104E-05
   17.5200005       1.37104171E-05
   17.6399994       1.43470979E-05
   17.7600002       1.50059695E-05
   17.8799992       1.56874685E-05
   18.0000000       1.63919685E-05
   18.1200008       1.71198062E-05
   18.2399998       1.78713181E-05
   18.3600006       1.86468733E-05
   18.4799995       1.94468903E-05
   18.6000004       2.02718420E-05
   18.7199993       2.11222559E-05
   18.8400002       2.19986741E-05
   18.9599991       2.29016478E-05
   19.0799999       2.38317098E-05
   19.2000008       2.47893458E-05
   19.3199997       2.57750035E-05
   19.4400005       2.67890864E-05
   19.5599995       2.78319912E-05
   19.6800003       2.89041018E-05
   19.7999992       3.00058218E-05
   19.9200001       3.11375552E-05
   20.0400009       3.22997039E-05
   20.1599998       3.34926735E-05
   20.2800007       3.47168207E-05
   20.3999996       3.59724654E-05
   20.5200005       3.72598915E-05
   20.6399994       3.85793392E-05
   20.7600002       3.99310338E-05
   20.8799992       4.13152011E-05
   21.0000000       4.27320883E-05
   21.1200008       4.41819539E-05
   21.2399998       4.56651069E-05
   21.3600006       4.71818603E-05
   21.4799995       4.87325415E-05
   21.6000004       5.03174415E-05
   21.7199993       5.19368332E-05
   21.8400002       5.35908985E-05
   21.9599991       5.52797610E-05
   22.0799999       5.70034499E-05
   22.2000008       5.87619106E-05
   22.3199997       6.05550485E-05
   22.4400005       6.23827364E-05
   22.5599995       6.42448504E-05
   22.6800003       6.61413069E-05
   22.7999992       6.80720550E-05
   22.9200001       7.00370874E-05
   23.0400009       7.20363678E-05
   23.1599998       7.40698888E-05
   23.2800007       7.61375413E-05
   23.3999996       7.82391071E-05
   23.5200005       8.03742369E-05
   23.6399994       8.25424431E-05
   23.7600002       8.47431002E-05
   23.8799992       8.69755168E-05
   24.0000000       8.92389726E-05
   24.1200008       9.15327691E-05
   24.2399998       9.38562298E-05
   24.3600006       9.62087579E-05
   24.4799995       9.85897859E-05
   24.6000004       1.00998725E-04
   24.7199993       1.03434941E-04
   24.8400002       1.05897729E-04
   24.9599991       1.08386237E-04
   25.0799999       1.10899535E-04
   25.2000008       1.13436574E-04
   25.3199997       1.15996234E-04
   25.4400005       1.18577358E-04
   25.5599995       1.21178731E-04
   25.6800003       1.23799051E-04
   25.7999992       1.26436978E-04
   25.9200001       1.29091088E-04
   26.0400009       1.31759880E-04
   26.1599998       1.34441725E-04
   26.2800007       1.37134979E-04
   26.3999996       1.39837939E-04
   26.5200005       1.42548815E-04
   26.6399994       1.45265862E-04
   26.7600002       1.47987172E-04
   26.8799992       1.50710868E-04
   27.0000000       1.53434987E-04
   27.1200008       1.56157519E-04
   27.2399998       1.58876355E-04
   27.3600006       1.61589312E-04
   27.4799995       1.64294150E-04
   27.6000004       1.66988524E-04
   27.7199993       1.69670020E-04
   27.8400002       1.72336106E-04
   27.9599991       1.74984190E-04
   28.0799999       1.77611568E-04
   28.2000008       1.80215502E-04
   28.3199997       1.82793199E-04
   28.4400005       1.85341851E-04
   28.5599995       1.87858619E-04
   28.6800003       1.90340623E-04
   28.7999992       1.92784937E-04
   28.9200001       1.95188550E-04
   29.0400009       1.97548419E-04
   29.1599998       1.99861359E-04
   29.2800007       2.02124138E-04
   29.3999996       2.04333395E-04
   29.5200005       2.06485769E-04
   29.6399994       2.08577825E-04
   29.7600002       2.10606115E-04
   29.8799992       2.12567204E-04
   30.0000000       2.14457599E-04
   30.1200008       2.16273882E-04
   30.2399998       2.18012559E-04
   30.3600006       2.19670153E-04
   30.4799995       2.21243157E-04
   30.6000004       2.22728035E-04
   30.7199993       2.24121221E-04
   30.8400002       2.25419106E-04
   30.9599991       2.26618111E-04
   31.0799999       2.27714598E-04
   31.2000008       2.28704870E-04
   31.3199997       2.29585319E-04
   31.4400005       2.30352278E-04
   31.5599995       2.31002108E-04
   31.6800003       2.31531245E-04
   31.7999992       2.31936152E-04
   31.9200001       2.32213366E-04
   32.0400009       2.32359453E-04
   32.1599998       2.32371021E-04
   32.2799988       2.32244725E-04
   32.4000015       2.31977261E-04
   32.5200005       2.31565398E-04
   32.6399994       2.31005906E-04
   32.7599983       2.30295671E-04
   32.8800011       2.29431695E-04
   33.0000000       2.28411009E-04
   33.1199989       2.27230790E-04
   33.2400017       2.25888245E-04
   33.3600006       2.24380768E-04
   33.4799995       2.22705799E-04
   33.5999985       2.20860922E-04
   33.7200012       2.18843896E-04
   33.8400002       2.16652610E-04
   33.9599991       2.14285130E-04
   34.0800018       2.11739636E-04
   34.2000008       2.09014455E-04
   34.3199997       2.06108060E-04
   34.4399986       2.03018993E-04
   34.5600014       1.99745904E-04
   34.6800003       1.96287612E-04
   34.7999992       1.92643012E-04
   34.9199982       1.88811217E-04
   35.0400009       1.84791570E-04
   35.1599998       1.80583636E-04
   35.2799988       1.76187255E-04
   35.4000015       1.71602529E-04
   35.5200005       1.66829792E-04
   35.6399994       1.61869670E-04
   35.7599983       1.56722919E-04
   35.8800011       1.51390559E-04
   36.0000000       1.45873651E-04
   36.1199989       1.40173506E-04
   36.2400017       1.34291491E-04
   36.3600006       1.28229149E-04
   36.4799995       1.21988262E-04
   36.5999985       1.15570896E-04
   36.7200012       1.08979380E-04
   36.8400002       1.02216371E-04
   36.9599991       9.52848568E-05
   37.0800018       8.81881060E-05
   37.2000008       8.09296471E-05
   37.3199997       7.35132780E-05
   37.4399986       6.59429570E-05
   37.5600014       5.82228495E-05
   37.6800003       5.03573101E-05
   37.7999992       4.23508573E-05
   37.9199982       3.42082203E-05
   38.0400009       2.59343124E-05
   38.1599998       1.75342429E-05
   38.2799988       9.01331987E-06
   38.4000015       3.77067494E-07
   38.5200005      -8.36875188E-06
   38.6399994      -1.72181153E-05
   38.7599983      -2.61647365E-05
   38.8800011      -3.52020616E-05
   39.0000000      -4.43233002E-05
   39.1199989      -5.35214676E-05
   39.2400017      -6.27893896E-05
   39.3600006      -7.21197648E-05
   39.4799995      -8.15051681E-05
   39.5999985      -9.09380469E-05
   39.7200012      -1.00410747E-04
   39.8400002      -1.09915469E-04
   39.9599991      -1.19444318E-04
   40.0800018      -1.28989253E-04
   40.2000008      -1.38542062E-04
   40.3199997      -1.48094448E-04
   40.4399986      -1.57637987E-04
   40.5600014      -1.67164166E-04
   40.6800003      -1.76664369E-04
   40.7999992      -1.86129982E-04
   40.9199982      -1.95552318E-04
   41.0400009      -2.04922719E-04
   41.1599998      -2.14232525E-04
   41.2799988      -2.23473005E-04
   41.4000015      -2.32635401E-04
   41.5200005      -2.41710935E-04
   41.6399994      -2.50690762E-04
   41.7599983      -2.59566092E-04
   41.8800011      -2.68328178E-04
   42.0000000      -2.76968407E-04
   42.1199989      -2.85478280E-04
   42.2400017      -2.93849473E-04
   42.3600006      -3.02073808E-04
   42.4799995      -3.10143252E-04
   42.5999985      -3.18049890E-04
   42.7200012      -3.25785804E-04
   42.8400002      -3.33343312E-04
   42.9599991      -3.40714789E-04
   43.0800018      -3.47892725E-04
   43.2000008      -3.54869902E-04
   43.3199997      -3.61639075E-04
   43.4399986      -3.68193374E-04
   43.5600014      -3.74525989E-04
   43.6800003      -3.80630372E-04
   43.7999992      -3.86500236E-04
   43.9199982      -3.92129732E-04
   44.0400009      -3.97513184E-04
   44.1599998      -4.02645383E-04
   44.2799988      -4.07521526E-04
   44.4000015      -4.12136927E-04
   44.5200005      -4.16487426E-04
   44.6399994      -4.20568802E-04
   44.7599983      -4.24377242E-04
   44.8800011      -4.27909050E-04
   45.0000000      -4.31160850E-04
   45.1199989      -4.34129674E-04
   45.2400017      -4.36812930E-04
   45.3600006      -4.39208583E-04
   45.4799995      -4.41314885E-04
   45.5999985      -4.43130586E-04
   45.7200012      -4.44654783E-04
   45.8400002      -4.45886806E-04
   45.9599991      -4.46826423E-04
   46.0800018      -4.47473722E-04
   46.2000008      -4.47829021E-04
   46.3199997      -4.47893137E-04
   46.4399986      -4.47667146E-04
   46.5600014      -4.47152532E-04
   46.6800003      -4.46351129E-04
   46.7999992      -4.45265119E-04
   46.9199982      -4.43897065E-04
   47.0400009      -4.42249817E-04
   47.1599998      -4.40326665E-04
   47.2799988      -4.38131217E-04
   47.4000015      -4.35667491E-04
   47.5200005      -4.32939996E-04
   47.6399994      -4.29953361E-04
   47.7599983      -4.26712737E-04
   47.8800011      -4.23223450E-04
   48.0000000      -4.19491116E-04
   48.1199989      -4.15521557E-04
   48.2400017      -4.11320972E-04
   48.3600006      -4.06895648E-04
   48.4799995      -4.02252306E-04
   48.5999985      -3.97397787E-04
   48.7200012      -3.92339134E-04
   48.8400002      -3.87083681E-04
   48.9599991      -3.81638936E-04
   49.0800018      -3.76012613E-04
   49.2000008      -3.70212627E-04
   49.3199997      -3.64247157E-04
   49.4399986      -3.58124613E-04
   49.5600014      -3.51853669E-04
   49.6800003      -3.45443172E-04
   49.7999992      -3.38902028E-04
   49.9199982      -3.32239259E-04
   50.0400009      -3.25463741E-04
   50.1599998      -3.18584469E-04
   50.2799988      -3.11610231E-04
   50.4000015      -3.04549845E-04
   50.5200005      -2.97412073E-04
   50.6399994      -2.90205819E-04
   50.7599983      -2.82940106E-04
   50.8800011      -2.75624014E-04
   51.0000000      -2.68266682E-04
   51.1199989      -2.60877336E-04
   51.2400017      -2.53465056E-04
   51.3600006      -2.46038951E-04
   51.4799995      -2.38607841E-04
   51.5999985      -2.31180529E-04
   51.7200012      -2.23765644E-04
   51.8400002      -2.16371540E-04
   51.9599991      -2.09006452E-04
   52.0800018      -2.01678398E-04
   52.2000008      -1.94395179E-04
   52.3199997      -1.87164420E-04
   52.4399986      -1.79993600E-04
   52.5600014      -1.72890010E-04
   52.6800003      -1.65860867E-04
   52.7999992      -1.58913186E-04
   52.9199982      -1.52053777E-04
   53.0400009      -1.45289276E-04
   53.1599998      -1.38625939E-04
   53.2799988      -1.32069792E-04
   53.4000015      -1.25626495E-04
   53.5200005      -1.19301469E-04
   53.6399994      -1.13099872E-04
   53.7599983      -1.07026586E-04
   53.8800011      -1.01086254E-04
   54.0000000      -9.52832561E-05
   54.1199989      -8.96216807E-05
   54.2400017      -8.41052752E-05
   54.3600006      -7.87374738E-05
   54.4799995      -7.35214126E-05
   54.5999985      -6.84599145E-05
   54.7200012      -6.35555334E-05
   54.8400002      -5.88105286E-05
   54.9599991      -5.42269154E-05
   55.0800018      -4.98064219E-05
   55.2000008      -4.55504887E-05
   55.3199997      -4.14602619E-05
   55.4399986      -3.75366035E-05
   55.5600014      -3.37801102E-05
   55.6800003      -3.01910877E-05
   55.7999992      -2.67695741E-05
   55.9199982      -2.35153420E-05
   56.0400009      -2.04278786E-05
   56.1599998      -1.75064015E-05
   56.2799988      -1.47498577E-05
   56.4000015      -1.21569474E-05
   56.5200005      -9.72612179E-06
   56.6399994      -7.45560692E-06
   56.7599983      -5.34340825E-06
   56.8800011      -3.38731661E-06
   57.0000000      -1.58491378E-06
   57.1199989       6.64103155E-08
   57.2400017       1.56943463E-06
   57.3600006       2.92708864E-06
   57.4799995       4.14243823E-06
   57.5999985       5.21868333E-06
   57.7200012       6.15916406E-06
   57.8400002       6.96737015E-06
   57.9599991       7.64694505E-06
   58.0800018       8.20168316E-06
   58.2000008       8.63550849E-06
   58.3199997       8.95245103E-06
   58.4399986       9.15662076E-06
   58.5600014       9.25218137E-06
   58.6800003       9.24335018E-06
   58.7999992       9.13439271E-06
   58.9199982       8.92963089E-06
   59.0400009       8.63345576E-06
   59.1599998       8.25032021E-06
   59.2799988       7.78472986E-06
   59.4000015       7.24121628E-06
   59.5200005       6.62431603E-06
   59.6399994       5.93853838E-06
   59.7599983       5.18834850E-06
   59.8800011       4.37815288E-06
   60.0000000       3.51229824E-06
   60.1199989       2.59507351E-06
   60.2400017       1.63071570E-06
   60.3600006       6.23418202E-07
   60.4799995      -4.22670013E-07
   60.5999985      -1.50344420E-06
   60.7200012      -2.61484797E-06
   60.8400002      -3.75287959E-06
   60.9599991      -4.91359606E-06
   61.0800018      -6.09312019E-06
   61.2000008      -7.28764735E-06
   61.3199997      -8.49345633E-06
   61.4399986      -9.70692872E-06
   61.5600014      -1.09245730E-05
   61.6800003      -1.21430412E-05
   61.7999992      -1.33591466E-05
   61.9199982      -1.45698696E-05
   62.0400009      -1.57723425E-05
   62.1599998      -1.69638261E-05
   62.2799988      -1.81416781E-05
   62.4000015      -1.93033302E-05
   62.5200005      -2.04462722E-05
   62.6399994      -2.15680811E-05
   62.7599983      -2.26664361E-05
   62.8800011      -2.37391614E-05
   63.0000000      -2.47842618E-05
   63.1199989      -2.57999509E-05
   63.2400017      -2.67846317E-05
   63.3600006      -2.77368817E-05
   63.4799995      -2.86554005E-05
   63.5999985      -2.95389782E-05
   63.7200012      -3.03864472E-05
   63.8400002      -3.11966724E-05
   63.9599991      -3.19685532E-05
   64.0800018      -3.27010712E-05
   64.1999969      -3.33932985E-05
   64.3199997      -3.40444749E-05
   64.4400024      -3.46540110E-05
   64.5599976      -3.52215102E-05
   64.6800003      -3.57467652E-05
   64.8000031      -3.62297142E-05
   64.9199982      -3.66704553E-05
   65.0400009      -3.70691669E-05
   65.1600037      -3.74261217E-05
   65.2799988      -3.77416218E-05
   65.4000015      -3.80160127E-05
   65.5199966      -3.82496291E-05
   65.6399994      -3.84428313E-05
   65.7600021      -3.85959793E-05
   65.8799973      -3.87094806E-05
   66.0000000      -3.87838008E-05
   66.1200027      -3.88195294E-05
   66.2399979      -3.88173758E-05
   66.3600006      -3.87782165E-05
   66.4800034      -3.87030450E-05
   66.5999985      -3.85929816E-05
   66.7200012      -3.84491686E-05
   66.8399963      -3.82727885E-05
   66.9599991      -3.80649690E-05
   67.0800018      -3.78267978E-05
   67.1999969      -3.75593336E-05
   67.3199997      -3.72636059E-05
   67.4400024      -3.69406662E-05
   67.5599976      -3.65915985E-05
   67.6800003      -3.62175306E-05
   67.8000031      -3.58196412E-05
   67.9199982      -3.53991636E-05
   68.0400009      -3.49573347E-05
   68.1600037      -3.44954169E-05
   68.2799988      -3.40146617E-05
   68.4000015      -3.35162913E-05
   68.5199966      -3.30015464E-05
   68.6399994      -3.24716384E-05
   68.7600021      -3.19278079E-05
   68.8799973      -3.13712917E-05
   69.0000000      -3.08033304E-05
   69.1200027      -3.02251483E-05
   69.2399979      -2.96379403E-05
   69.3600006      -2.90428379E-05
   69.4800034      -2.84409107E-05
   69.5999985      -2.78331681E-05
   69.7200012      -2.72205871E-05
   69.8399963      -2.66041352E-05
   69.9599991      -2.59847911E-05
   70.0800018      -2.53635462E-05
   70.1999969      -2.47413882E-05
   70.3199997      -2.41192756E-05
   70.4400024      -2.34981017E-05
   70.5599976      -2.28786903E-05
   70.6800003      -2.22617982E-05
   70.8000031      -2.16481330E-05
   70.9199982      -2.10384023E-05
   71.0400009      -2.04333264E-05
   71.1600037      -1.98336529E-05
   71.2799988      -1.92401403E-05
   71.4000015      -1.86535253E-05
   71.5199966      -1.80745010E-05
   71.6399994      -1.75036639E-05
   71.7600021      -1.69415198E-05
   71.8799973      -1.63884852E-05
   72.0000000      -1.58448947E-05
   72.1200027      -1.53110359E-05
   72.2399979      -1.47871633E-05
   72.3600006      -1.42735171E-05
   72.4800034      -1.37703382E-05
   72.5999985      -1.32778750E-05
   72.7200012      -1.27963831E-05