  -30.0000000       0.00000000    
  -29.8799992       0.00000000    
  -29.7600002       0.00000000    
  -29.6399994       0.00000000    
  -29.5200005       0.00000000    
  -29.3999996       0.00000000    
  -29.2800007      -1.68155816E-44
  -29.1599998       2.27010351E-43
  -29.0400009       2.48590348E-42
  -28.9200001       1.25121940E-41
  -28.7999992       2.92507041E-41
  -28.6800003       9.78947107E-42
  -28.5599995      -1.37345466E-40
  -28.4400005      -3.64617860E-40
  -28.3199997      -8.60201075E-41
  -28.2000008       1.68220976E-39
  -28.0799999       3.98880028E-39
  -27.9599991      -7.28578512E-40
  -27.8400002      -2.72179133E-38
  -27.7199993      -7.89295541E-38
  -27.6000004      -1.00372823E-37
  -27.4799995       7.09722584E-38
  -27.3600006       6.55241826E-37
  -27.2399998       1.65073049E-36
  -27.1200008       2.31459889E-36
  -27.0000000       7.54821323E-37
  -26.8799992      -5.55818233E-36
  -26.7600002      -1.74798607E-35
  -26.6399994      -3.01599737E-35
  -26.5200005      -2.95861539E-35
  -26.3999996       5.50170028E-36
  -26.2800007       9.11618713E-35
  -26.1599998       2.14705375E-34
  -26.0400009       3.09864558E-34
  -25.9200001       2.52612450E-34
  -25.7999992      -9.60238778E-35
  -25.6800003      -7.88328940E-34
  -25.5599995      -1.65565900E-33
  -25.4400005      -2.21826602E-33
  -25.3199997      -1.74879341E-33
  -25.2000008       4.24620886E-34
  -25.0799999       4.39504958E-33
  -24.9599991       9.12303664E-33
  -24.8400002       1.22038024E-32
  -24.7199993       1.03446214E-32
  -24.6000004       7.51400831E-34
  -24.4799995      -1.68142741E-32
  -24.3600006      -3.81073257E-32
  -24.2399998      -5.38161238E-32
  -24.1200008      -5.14853360E-32
  -24.0000000      -2.03594358E-32
  -23.8799992       4.18174269E-32
  -23.7600002       1.22585300E-31
  -23.6399994       1.92701316E-31
  -23.5200005       2.11463111E-31
  -23.3999996       1.40536063E-31
  -23.2800007      -3.62775953E-32
  -23.1599998      -2.93977619E-31
  -23.0400009      -5.57371132E-31
  -22.9200001      -7.10978433E-31
  -22.7999992      -6.31852194E-31
  -22.6800003      -2.40693494E-31
  -22.5599995       4.43417393E-31
  -22.4400005       1.26700743E-30
  -22.3199997       1.94828051E-30
  -22.2000008       2.14016689E-30
  -22.0799999       1.54726108E-30
  -21.9599991       6.99287189E-32
  -21.8400002      -2.07292504E-30
  -21.7199993      -4.30138736E-30
  -21.6000004      -5.76192762E-30
  -21.4799995      -5.56102755E-30
  -21.3600006      -3.10848328E-30
  -21.2399998       1.52526580E-30
  -21.1200008       7.37712043E-30
  -21.0000000       1.26279465E-29
  -20.8799992       1.49978665E-29
  -20.7600002       1.24787178E-29
  -20.6399994       4.23591026E-30
  -20.5200005      -8.62149160E-30
  -20.3999996      -2.27632792E-29
  -20.2800007      -3.31471412E-29
  -20.1599998      -3.43961338E-29
  -20.0400009      -2.28047995E-29
  -19.9200001       1.60347830E-30
  -19.7999992       3.37670950E-29
  -19.6800003       6.38025864E-29
  -19.5599995       7.91893763E-29
  -19.4400005       6.87480856E-29
  -19.3199997       2.74862432E-29
  -19.2000008      -3.92563835E-29
  -19.0799999      -1.14191456E-28
  -18.9599991      -1.70490457E-28
  -18.8400002      -1.78723831E-28
  -18.7199993      -1.17334802E-28
  -18.6000004       1.60007494E-29
  -18.4799995       1.96055804E-28
  -18.3600006       3.69037211E-28
  -18.2399998       4.62074697E-28
  -18.1200008       4.03806457E-28
  -18.0000000       1.52811599E-28
  -17.8799992      -2.73577963E-28
  -17.7600002      -7.80797181E-28
  -17.6399994      -1.20030136E-27
  -17.5200005      -1.32272994E-27
  -17.3999996      -9.61475651E-28
  -17.2800007      -3.58817631E-29
  -17.1599998       1.34896929E-27
  -17.0400009       2.85798528E-27
  -16.9200001       3.95042166E-27
  -16.7999992       3.99485364E-27
  -16.6800003       2.47218030E-27
  -16.5599995      -7.70703575E-28
  -16.4400005      -5.29038627E-27
  -16.3199997      -9.93841481E-27
  -16.2000008      -1.29725279E-26
  -16.0799999      -1.24467044E-26
  -15.9600000      -6.86038895E-27
  -15.8400002       4.06002441E-27
  -15.7200003       1.86825913E-26
  -15.6000004       3.31981789E-26
  -15.4799995       4.20457532E-26
  -15.3599997       3.91951858E-26
  -15.2399998       2.01996463E-26
  -15.1199999      -1.53984878E-26
  -15.0000000      -6.20460549E-26
  -14.8800001      -1.07472018E-25
  -14.7600002      -1.34158702E-25
  -14.6400003      -1.23438600E-25
  -14.5200005      -6.18936753E-26
  -14.3999996       5.12626098E-26
  -14.2799997       1.98100304E-25
  -14.1599998       3.40016183E-25
  -14.0400000       4.22495757E-25
  -13.9200001       3.87886334E-25
  -13.8000002       1.95117497E-25
  -13.6800003      -1.57714360E-25
  -13.5600004      -6.14864666E-25
  -13.4399996      -1.05715842E-24
  -13.3199997      -1.31672639E-24
  -13.1999998      -1.21610768E-24
  -13.0799999      -6.28420747E-25
  -12.9600000       4.53822508E-25
  -12.8400002       1.86236195E-24
  -12.7200003       3.23527279E-24
  -12.6000004       4.06108631E-24
  -12.4799995       3.79658953E-24
  -12.3599997       2.04847870E-24
  -12.2399998      -1.21832911E-24
  -12.1199999      -5.50894308E-24
  -12.0000000      -9.74121576E-24
  -11.8800001      -1.23739949E-23
  -11.7600002      -1.17565597E-23
  -11.6400003      -6.67126967E-24
  -11.5200005       3.04010249E-24
  -11.3999996       1.59537084E-23
  -11.2799997       2.88769666E-23
  -11.1599998       3.72117112E-23
  -11.0400000       3.59780526E-23
  -10.9200001       2.14226239E-23
  -10.8000002      -7.10688261E-24
  -10.6800003      -4.55725892E-23
  -10.5600004      -8.46336995E-23
  -10.4399996      -1.10654958E-22
  -10.3199997      -1.08686012E-22
  -10.1999998      -6.72126657E-23
  -10.0799999       1.62356362E-23
  -9.96000004       1.30243460E-22
  -9.84000015       2.47491212E-22
  -9.72000027       3.27519498E-22
  -9.60000038       3.25395177E-22
  -9.47999954       2.05792795E-22
  -9.35999966      -4.01327211E-23
  -9.23999977      -3.79855559E-22
  -9.11999989      -7.32751716E-22
  -9.00000000      -9.77558352E-22
  -8.88000011      -9.77681945E-22
  -8.76000023      -6.23320830E-22
  -8.64000034       1.17059777E-22
  -8.52000046       1.15001168E-21
  -8.39999962       2.23391009E-21
  -8.27999973       2.99816722E-21
  -8.15999985       3.01727497E-21
  -8.03999996       1.93836832E-21
  -7.92000008      -3.58468770E-22
  -7.80000019      -3.60891268E-21
  -7.67999983      -7.07977262E-21
  -7.55999994      -9.61168039E-21
  -7.44000006      -9.83297786E-21
  -7.32000017      -6.54907204E-21
  -7.19999981       7.47694533E-22
  -7.07999992       1.13698988E-20
  -6.96000004       2.31068720E-20
  -6.84000015       3.22752272E-20
  -6.71999979       3.43085987E-20
  -6.59999990       2.49365147E-20
  -6.48000002       1.82378219E-21
  -6.36000013      -3.36754275E-20
  -6.23999977      -7.51950798E-20
  -6.11999989      -1.11121867E-19
  -6.00000000      -1.26041685E-19
  -5.88000011      -1.04176050E-19
  -5.76000023      -3.45937466E-20
  -5.63999987       8.27083807E-20
  -5.51999998       2.31473621E-19
  -5.40000010       3.76728605E-19
  -5.28000021       4.67373228E-19
  -5.15999985       4.45348975E-19
  -5.03999996       2.61486862E-19
  -4.92000008      -1.03980564E-19
  -4.80000019      -6.20698392E-19
  -4.67999983      -1.19383969E-18
  -4.55999994      -1.66371323E-18
  -4.44000006      -1.82597411E-18
  -4.32000017      -1.47562797E-18
  -4.19999981      -4.72006266E-19
  -4.07999992       1.18595614E-18
  -3.96000004       3.29287822E-18
  -3.83999991       5.40317023E-18
  -3.72000003       6.85598559E-18
  -3.59999990       6.87814121E-18
  -3.48000002       4.76918799E-18
  -3.35999990       1.49807450E-19
  -3.24000001      -6.77277784E-18
  -3.11999989      -1.49944667E-17
  -3.00000000      -2.26466716E-17
  -2.88000011      -2.71556149E-17
  -2.75999999      -2.56829257E-17
  -2.64000010      -1.58432781E-17
  -2.51999998       3.38770269E-18
  -2.40000010       3.07551310E-17
  -2.27999997       6.20569755E-17
  -2.16000009       9.00283791E-17
  -2.03999996       1.05052447E-16
  -1.91999996       9.68549286E-17
  -1.79999995       5.71297716E-17
  -1.67999995      -1.72410727E-17
  -1.55999994      -1.21019210E-16
  -1.44000006      -2.38396338E-16
  -1.32000005      -3.42755217E-16
  -1.20000005      -3.99308987E-16
  -1.08000004      -3.71110704E-16
 -0.959999979      -2.28213546E-16
 -0.839999974       4.11823349E-17
 -0.720000029       4.19772217E-16
 -0.600000024       8.53390988E-16
 -0.479999989       1.24984423E-15
 -0.360000014       1.48733437E-15
 -0.239999995       1.43417543E-15
 -0.119999997       9.79218368E-16
  -1.11022302E-15   6.93926911E-17
  0.119999997      -1.25247988E-15
  0.239999995      -2.81921216E-15
  0.360000014      -4.33110223E-15
  0.479999989      -5.37822384E-15
  0.600000024      -5.49950710E-15
  0.720000029      -4.27820036E-15
  0.839999974      -1.46407517E-15
  0.959999979       2.89759214E-15
   1.08000004       8.35946387E-15
   1.20000005       1.40227914E-14
   1.32000005       1.85791849E-14
   1.44000006       2.04680091E-14
   1.55999994       1.81551670E-14
   1.67999995       1.05120109E-14
   1.79999995      -2.75852860E-15
   1.91999996      -2.07320665E-14
   2.03999996      -4.10144229E-14
   2.16000009      -5.97448252E-14
   2.27999997      -7.19416727E-14
   2.40000010      -7.22349088E-14
   2.51999998      -5.59558571E-14
   2.64000010      -2.04634419E-14
   2.75999999       3.35100159E-14
   2.88000011       1.00789806E-13
   3.00000000       1.71302737E-13
   3.11999989       2.30548545E-13
   3.24000001       2.61214661E-13
   3.35999990       2.45972432E-13
   3.48000002       1.71246819E-13
   3.59999990       3.14729051E-14
   3.72000003      -1.66913480E-13
   3.83999991      -4.02691823E-13
   3.96000004      -6.39269887E-13
   4.07999992      -8.27136591E-13
   4.19999981      -9.09831997E-13
   4.32000017      -8.33325813E-13
   4.44000006      -5.57959332E-13
   4.55999994      -7.13141162E-14
   4.67999983       6.00323664E-13
   4.80000019       1.38466181E-12
   4.92000008       2.16301911E-12
   5.03999996       2.77906040E-12
   5.15999985       3.05768995E-12
   5.28000021       2.83344637E-12
   5.40000010       1.98568137E-12
   5.51999998       4.75708557E-13
   5.63999987      -1.62067267E-12
   5.76000023      -4.09283545E-12
   5.88000011      -6.59454739E-12
   6.00000000      -8.66846872E-12
   6.11999989      -9.79847193E-12
   6.23999977      -9.48780637E-12
   6.36000013      -7.35581301E-12
   6.48000002      -3.24050921E-12
   6.59999990       2.71008715E-12
   6.71999979       9.97742514E-12
   6.84000015       1.76617748E-11
   6.96000004       2.45364389E-11
   7.07999992       2.91740555E-11
   7.19999981       3.01412888E-11
   7.32000017       2.62451606E-11
   7.44000006       1.68012357E-11
   7.55999994       1.88276738E-12
   7.67999983      -1.74965702E-11
   7.80000019      -3.93135836E-11
   7.92000008      -6.06189821E-11
   8.03999996      -7.77954853E-11
   8.15999985      -8.69884165E-11
   8.27999973      -8.46772652E-11
   8.39999962      -6.83263723E-11
   8.52000046      -3.70262015E-11
   8.64000034       7.98117909E-12
   8.76000023       6.30024297E-11
   8.88000011       1.21916394E-10
   9.00000000       1.76586051E-10
   9.11999989       2.17675905E-10
   9.23999977       2.35830938E-10
   9.35999966       2.23107227E-10
   9.47999954       1.74483220E-10
   9.60000038       8.92343491E-11
   9.72000027      -2.80671250E-11
   9.84000015      -1.67152653E-10
   9.96000004      -3.12434856E-10
   10.0799999      -4.44252718E-10
   10.1999998      -5.40960443E-10
   10.3199997      -5.81704906E-10
   10.4399996      -5.49605583E-10
   10.5600004      -4.34939945E-10
   10.6800003      -2.37867254E-10
   10.8000002       2.97881338E-11
   10.9200001       3.44118373E-10
   11.0400000       6.70374090E-10
   11.1599998       9.65972191E-10
   11.2799997       1.18513566E-09
   11.3999996       1.28477751E-09
   11.5200005       1.23099564E-09
   11.6400003       1.00535991E-09
   11.7600002       6.10067663E-10
   11.8800001       7.10536768E-11
   12.0000000      -5.61717395E-10
   12.1199999      -1.21728083E-09
   12.2399998      -1.81014903E-09
   12.3599997      -2.24990870E-09
   12.4799995      -2.45312859E-09
   12.6000004      -2.35632802E-09
   12.7200003      -1.92841232E-09
   12.8400002      -1.18078680E-09
   12.9600000      -1.73384307E-10
   13.0799999       9.84922033E-10
   13.1999998       2.14257523E-09
   13.3199997       3.11863757E-09
   13.4399996       3.72269948E-09
   13.5600004       3.78004872E-09
   13.6800003       3.15988746E-09
   13.8000002       1.80364024E-09
   13.9200001      -2.50126558E-10
   14.0400000      -2.84788304E-09
   14.1599998      -5.71393599E-09
   14.2799997      -8.45684323E-09
   14.3999996      -1.05914433E-08
   14.5200005      -1.15772076E-08
   14.6400003      -1.08720313E-08
   14.7600002      -7.99882827E-09
   14.8800001      -2.62047650E-09
   15.0000000       5.38292610E-09
   15.1199999       1.58419660E-08
   15.2399998       2.82393895E-08
   15.3599997       4.16739105E-08
   15.4799995       5.48548442E-08
   15.6000004       6.61350299E-08
   15.7200003       7.35877563E-08
   15.8400002       7.51307070E-08
   15.9600000       6.86969841E-08
   16.0799999       5.24492840E-08
   16.2000008       2.50294807E-08
   16.3199997      -1.41685810E-08
   16.4400005      -6.47191243E-08
   16.5599995      -1.24896630E-07
   16.6800003      -1.91442751E-07
   16.7999992      -2.59391186E-07
   16.9200001      -3.21974341E-07
   17.0400009      -3.70633671E-07
   17.1599998      -3.95152341E-07
   17.2800007      -3.83922668E-07
   17.3999996      -3.24355256E-07
   17.5200005      -2.03425756E-07
   17.6399994      -8.34819591E-09
   17.7600002       2.72649032E-07
   17.8799992       6.49476021E-07
   18.0000000       1.12930582E-06
   18.1200008       1.71571833E-06
   18.2399998       2.40791928E-06
   18.3600006       3.20008894E-06
   18.4799995       4.08091546E-06
   18.6000004       5.03335968E-06
   18.7199993       6.03470016E-06
   18.8400002       7.05686944E-06
   18.9599991       8.06711250E-06
   19.0799999       9.02894408E-06
   19.2000008       9.90340050E-06
   19.3199997       1.06505231E-05
   19.4400005       1.12310272E-05
   19.5599995       1.16080782E-05
   19.6800003       1.17490954E-05
   19.7999992       1.16274796E-05
   19.9200001       1.12241851E-05
   20.0400009       1.05290446E-05
   20.1599998       9.54174538E-06
   20.2800007       8.27243184E-06
   20.3999996       6.74184639E-06
   20.5200005       4.98100098E-06
   20.6399994       3.03037746E-06
   20.7600002       9.38672713E-07
   20.8799992      -1.23886616E-06
   21.0000000      -3.44244313E-06
   21.1200008      -5.60996659E-06
   21.2399998      -7.67945585E-06
   21.3600006      -9.59148929E-06
   21.4799995      -1.12915632E-05
   21.6000004      -1.27322737E-05
   21.7199993      -1.38751984E-05
   21.8400002      -1.46923849E-05
   21.9599991      -1.51673867E-05
   22.0799999      -1.52957818E-05
   22.2000008      -1.50851620E-05
   22.3199997      -1.45545864E-05
   22.4400005      -1.37335464E-05
   22.5599995      -1.26604818E-05
   22.6800003      -1.13809410E-05
   22.7999992      -9.94548554E-06
   22.9200001      -8.40744178E-06
   23.0400009      -6.82062364E-06
   23.1599998      -5.23714925E-06
   23.2800007      -3.70543921E-06
   23.3999996      -2.26851580E-06
   23.5200005      -9.62655122E-07
   23.6399994       1.83546774E-07
   23.7600002       1.14967679E-06
   23.8799992       1.92358038E-06
   24.0000000       2.50104245E-06
   24.1200008       2.88512820E-06
   24.2399998       3.08525910E-06
   24.3600006       3.11610393E-06
   24.4799995       2.99637736E-06
   24.6000004       2.74763465E-06
   24.7199993       2.39313113E-06
   24.8400002       1.95681787E-06
   24.9599991       1.46250943E-06
   25.0799999       9.33247293E-07
   25.2000008       3.90857878E-07
   25.3199997      -1.44315379E-07
   25.4400005      -6.53543225E-07
   25.5599995      -1.11975248E-06
   25.6800003      -1.52753228E-06
   25.7999992      -1.86315594E-06
   25.9200001      -2.11466204E-06
   26.0400009      -2.27202440E-06
   26.1599998      -2.32742354E-06
   26.2800007      -2.27561259E-06
   26.3999996      -2.11434985E-06
   26.5200005      -1.84485657E-06
   26.6399994      -1.47224125E-06
   26.7600002      -1.00582736E-06
   26.8799992      -4.59320745E-07
   27.0000000       1.49241757E-07
   27.1200008       7.97807047E-07
   27.2399998       1.46090804E-06
   27.3600006       2.11055658E-06
   27.4799995       2.71740350E-06
   27.6000004       3.25211317E-06
   27.7199993       3.68688779E-06
   27.8400002       3.99704459E-06
   27.9599991       4.16254670E-06
   28.0799999       4.16937792E-06
   28.2000008       4.01066382E-06
   28.3199997       3.68743872E-06
   28.4400005       3.20899358E-06
   28.5599995       2.59275726E-06
   28.6800003       1.86369004E-06
   28.7999992       1.05321203E-06
   28.9200001       1.97707763E-07
   29.0400009      -6.63309095E-07
   29.1599998      -1.48927006E-06
   29.2800007      -2.24074233E-06
   29.3999996      -2.88160049E-06
   29.5200005      -3.38104860E-06
   29.6399994      -3.71535816E-06
   29.7600002      -3.86921784E-06
   29.8799992      -3.83660336E-06
   30.0000000      -3.62110814E-06
   30.1200008      -3.23571635E-06
   30.2399998      -2.70202941E-06
   30.3600006      -2.04899243E-06
   30.4799995      -1.31120748E-06
   30.6000004      -5.26938265E-07
   30.7199993       2.64063942E-07
   30.8400002       1.02277318E-06
   30.9599991       1.71300178E-06
   31.0799999       2.30328351E-06
   31.2000008       2.76841524E-06
   31.3199997       3.09057259E-06
   31.4400005       3.25994461E-06
   31.5599995       3.27487396E-06
   31.6800003       3.14151475E-06
   31.7999992       2.87306261E-06
   31.9200001       2.48863239E-06
   32.0400009       2.01188232E-06
   32.1599998       1.46949617E-06
   32.2799988       8.89629518E-07
   32.4000015       3.00427587E-07
   32.5200005      -2.71299541E-07
   32.6399994      -8.01179965E-07
   32.7599983      -1.26812199E-06
   32.8800011      -1.65488359E-06
   33.0000000      -1.94838367E-06
   33.1199989      -2.13978774E-06
   33.2400017      -2.22441713E-06
   33.3600006      -2.20153834E-06
   33.4799995      -2.07408243E-06
   33.5999985      -1.84834300E-06
   33.7200012      -1.53368251E-06
   33.8400002      -1.14225747E-06
   33.9599991      -6.88759997E-07
   34.0800018      -1.90151141E-07
   34.2000008       3.34647638E-07
   34.3199997       8.65145466E-07
   34.4399986       1.37979180E-06
   34.5600014       1.85663350E-06
   34.6800003       2.27412784E-06
   34.7999992       2.61210016E-06
   34.9199982       2.85280771E-06
   35.0400009       2.98205077E-06
   35.1599998       2.99024691E-06
   35.2799988       2.87337457E-06
   35.4000015       2.63369066E-06
   35.5200005       2.28012618E-06
   35.6399994       1.82828808E-06
   35.7599983       1.30001990E-06
   35.8800011       7.22507366E-07
   36.0000000       1.26956309E-07
   36.1199989      -4.53093691E-07
   36.2400017      -9.83718337E-07
   36.3600006      -1.43269176E-06
   36.4799995      -1.77155664E-06
   36.5999985      -1.97753002E-06
   36.7200012      -2.03509921E-06
   36.8400002      -1.93718688E-06
   36.9599991      -1.68578924E-06
   37.0800018      -1.29203670E-06
   37.2000008      -7.75669776E-07
   37.3199997      -1.63963009E-07
   37.4399986       5.09825554E-07
   37.5600014       1.20836978E-06
   37.6800003       1.89242246E-06
   37.7999992       2.52304790E-06
   37.9199982       3.06379707E-06
   38.0400009       3.48268691E-06
   38.1599998       3.75387503E-06
   38.2799988       3.85894191E-06
   38.4000015       3.78772779E-06
   38.5200005       3.53870428E-06
   38.6399994       3.11889039E-06
   38.7599983       2.54335191E-06
   38.8800011       1.83433895E-06
   39.0000000       1.02013496E-06
   39.1199989       1.33694925E-07
   39.2400017      -7.88849491E-07
   39.3600006      -1.70974272E-06
   39.4799995      -2.59115041E-06
   39.5999985      -3.39663916E-06
   39.7200012      -4.09254517E-06
   39.8400002      -4.64919549E-06
   39.9599991      -5.04194850E-06
   40.0800018      -5.25204359E-06
   40.2000008      -5.26722943E-06
   40.3199997      -5.08217272E-06
   40.4399986      -4.69864153E-06
   40.5600014      -4.12545205E-06
   40.6800003      -3.37819574E-06
   40.7999992      -2.47875073E-06
   40.9199982      -1.45459649E-06
   41.0400009      -3.37951093E-07
   41.1599998       8.35237529E-07
   41.2799988       2.02641604E-06
   41.4000015       3.19563060E-06
   41.5200005       4.30277714E-06
   41.6399994       5.30886018E-06
   41.7599983       6.17723163E-06
   41.8800011       6.87477541E-06
   42.0000000       7.37301571E-06
   42.1199989       7.64912147E-06
   42.2400017       7.68679183E-06
   42.3600006       7.47698505E-06
   42.4799995       7.01848739E-06
   42.5999985       6.31827515E-06
   42.7200012       5.39165603E-06
   42.8400002       4.26214774E-06
   42.9599991       2.96107532E-06
   43.0800018       1.52685777E-06
   43.2000008       3.96930577E-09
   43.3199997      -1.55841769E-06
   43.4399986      -3.10809810E-06
   43.5600014      -4.59176044E-06
   43.6800003      -5.95710890E-06
   43.7999992      -7.15509714E-06
   43.9199982      -8.14215309E-06
   44.0400009      -8.88228169E-06
   44.1599998      -9.34890340E-06
   44.2799988      -9.52630216E-06
   44.4000015      -9.41056715E-06
   44.5200005      -9.00994837E-06
   44.6399994      -8.34454477E-06
   44.7599983      -7.44533736E-06
   44.8800011      -6.35259721E-06
   45.0000000      -5.11373810E-06
   45.1199989      -3.78075674E-06
   45.2400017      -2.40740792E-06
   45.3600006      -1.04631931E-06
   45.4799995       2.53771134E-07
   45.5999985       1.45045283E-06
   45.7200012       2.50959260E-06
   45.8400002       3.40666043E-06
   45.9599991       4.12735017E-06
   46.0800018       4.66746997E-06
   46.2000008       5.03213005E-06
   46.3199997       5.23432846E-06
   46.4399986       5.29306135E-06
   46.5600014       5.23114068E-06
   46.6800003       5.07291134E-06
   46.7999992       4.84206384E-06
   46.9199982       4.55972668E-06
   47.0400009       4.24299105E-06
   47.1599998       3.90397281E-06
   47.2799988       3.54947156E-06
   47.4000015       3.18122352E-06
   47.5200005       2.79669280E-06
   47.6399994       2.39030237E-06
   47.7599983       1.95495932E-06
   47.8800011       1.48371987E-06
   48.0000000       9.71415261E-07
   48.1199989       4.16084077E-07
   48.2400017      -1.79931774E-07
   48.3600006      -8.09329606E-07
   48.4799995      -1.45969011E-06
   48.5999985      -2.11383758E-06
   48.7200012      -2.75068351E-06
   48.8400002      -3.34648212E-06
   48.9599991      -3.87638374E-06
   49.0800018      -4.31616127E-06
   49.2000008      -4.64395498E-06
   49.3199997      -4.84189331E-06
   49.4399986      -4.89746071E-06
   49.5600014      -4.80449762E-06
   49.6800003      -4.56375847E-06
   49.7999992      -4.18298487E-06
   49.9199982      -3.67650273E-06
   50.0400009      -3.06437300E-06
   50.1599998      -2.37117570E-06
   50.2799988      -1.62452807E-06
   50.4000015      -8.53455163E-07
   50.5200005      -8.67384742E-08
   50.6399994       6.48631726E-07
   50.7599983       1.32879302E-06
   50.8800011       1.93404571E-06
   51.0000000       2.44952616E-06
   51.1199989       2.86549516E-06
   51.2400017       3.17724016E-06
   51.3600006       3.38464133E-06
   51.4799995       3.49145716E-06
   51.5999985       3.50442679E-06
   51.7200012       3.43228271E-06
   51.8400002       3.28477995E-06
   51.9599991       3.07183473E-06
   52.0800018       2.80285167E-06
   52.2000008       2.48629522E-06
   52.3199997       2.12952978E-06
   52.4399986       1.73892215E-06
   52.5600014       1.32017226E-06
   52.6800003       8.78809544E-07
   52.7999992       4.20773034E-07
   52.9199982      -4.70172310E-08
   53.0400009      -5.16189971E-07
   53.1599998      -9.76637239E-07
   53.2799988      -1.41647649E-06
   53.4000015      -1.82229974E-06
   53.5200005      -2.17971069E-06
   53.6399994      -2.47412618E-06
   53.7599983      -2.69177508E-06
   53.8800011      -2.82081191E-06
   54.0000000      -2.85243709E-06
   54.1199989      -2.78190942E-06
   54.2400017      -2.60934144E-06
   54.3600006      -2.34018285E-06
   54.4799995      -1.98531939E-06
   54.5999985      -1.56075009E-06
   54.7200012      -1.08684549E-06
   54.8400002      -5.87218608E-07
   54.9599991      -8.72896777E-08
   55.0800018       3.87357090E-07
   55.2000008       8.12695987E-07
   55.3199997       1.16792546E-06
   55.4399986       1.43694183E-06
   55.5600014       1.60949344E-06
   55.6800003       1.68191809E-06
   55.7999992       1.65739209E-06
   55.9199982       1.54566192E-06
   56.0400009       1.36227311E-06
   56.1599998       1.12735040E-06
   56.2799988       8.64023548E-07
   56.4000015       5.96625284E-07
   56.5200005       3.48805969E-07
   56.6399994       1.41719568E-07
   56.7599983      -7.57175744E-09
   56.8800011      -8.73453558E-08
   57.0000000      -9.20189080E-08
   57.1199989      -2.24464110E-08
   57.2400017       1.14305919E-07
   57.3600006       3.05671733E-07
   57.4799995       5.34712626E-07
   57.5999985       7.81553581E-07
   57.7200012       1.02499632E-06
   57.8400002       1.24416783E-06
   57.9599991       1.42006763E-06
   58.0800018       1.53689041E-06
   58.2000008       1.58303158E-06
   58.3199997       1.55171210E-06
   58.4399986       1.44120145E-06
   58.5600014       1.25465226E-06
   58.6800003       9.99591748E-07
   58.7999992       6.87143540E-07
   58.9199982       3.31068918E-07
   59.0400009      -5.32778408E-08
   59.1599998      -4.49985663E-07
   59.2799988      -8.43532916E-07
   59.4000015      -1.21957873E-06
   59.5200005      -1.56555814E-06
   59.6399994      -1.87105957E-06
   59.7599983      -2.12799091E-06
   59.8800011      -2.33055539E-06
   60.0000000      -2.47507683E-06
   60.1199989      -2.55972418E-06
   60.2400017      -2.58418345E-06
   60.3600006      -2.54933207E-06
   60.4799995      -2.45695151E-06
   60.5999985      -2.30951582E-06
   60.7200012      -2.11006500E-06
   60.8400002      -1.86216948E-06
   60.9599991      -1.56996941E-06
   61.0800018      -1.23826374E-06
   61.2000008      -8.72619921E-07
   61.3199997      -4.79466848E-07
   61.4399986      -6.61427748E-08
   61.5600014       3.59126659E-07
   61.6800003       7.87330009E-07
   61.7999992       1.20885068E-06
   61.9199982       1.61371304E-06
   62.0400009       1.99186866E-06
   62.1599998       2.33349715E-06
   62.2799988       2.62928484E-06
   62.4000015       2.87066314E-06
   62.5200005       3.04998275E-06
   62.6399994       3.16062437E-06
   62.7599983       3.19704964E-06
   62.8800011       3.15481975E-06
   63.0000000       3.03060824E-06
   63.1199989       2.82224596E-06
   63.2400017       2.52883046E-06
   63.3600006       2.15092791E-06
   63.4799995       1.69087173E-06
   63.5999985       1.15315868E-06
   63.7200012       5.44901070E-07
   63.8400002      -1.23706968E-07
   63.9599991      -8.38981634E-07
   64.0800018      -1.58347461E-06
   64.1999969      -2.33591390E-06
   64.3199997      -3.07142477E-06
   64.4400024      -3.76209209E-06
   64.5599976      -4.37788367E-06
   64.6800003      -4.88793421E-06
   64.8000031      -5.26214171E-06
   64.9199982      -5.47300397E-06
   65.0400009      -5.49757215E-06
   65.1600037      -5.31938986E-06
   65.2799988      -4.93025937E-06
   65.4000015      -4.33166906E-06
   65.5199966      -3.53574137E-06
   65.6399994      -2.56556223E-06
   65.7600021      -1.45481704E-06
   65.8799973      -2.46683385E-07
   66.0000000       1.00799787E-06
   66.1200027       2.25319900E-06
   66.2399979       3.43069860E-06
   66.3600006       4.48340188E-06
   66.4800034       5.35878189E-06
   66.5999985       6.01218289E-06
   66.7200012       6.40975350E-06
   66.8399963       6.53078541E-06
   66.9599991       6.36925915E-06
   67.0800018       5.93447112E-06
   67.1999969       5.25067480E-06
   67.3199997       4.35573247E-06
   67.4400024       3.29887189E-06
   67.5599976       2.13768431E-06
   67.6800003       9.34575269E-07
   67.8000031      -2.47086319E-07
   67.9199982      -1.34685581E-06
   68.0400009      -2.31086869E-06
   68.1600037      -3.09501570E-06
   68.2799988      -3.66743029E-06
   68.4000015      -4.01012676E-06
   68.5199966      -4.11969268E-06
   68.6399994      -4.00701128E-06
   68.7600021      -3.69604413E-06
   68.8799973      -3.22178062E-06
   69.0000000      -2.62750950E-06
   69.1200027      -1.96160613E-06
   69.2399979      -1.27406599E-06
   69.3600006      -6.13025009E-07
   69.4800034      -2.15049809E-08
   69.5999985       4.65395800E-07
   69.7200012       8.22678430E-07
   69.8399963       1.03684351E-06
   69.9599991       1.10642782E-06
   70.0800018       1.04165190E-06
   70.1999969       8.63215632E-07
   70.3199997       6.00339206E-07
   70.4400024       2.88201392E-07
   70.5599976      -3.50311709E-08
   70.6800003      -3.31360496E-07
   70.8000031      -5.66062795E-07
   70.9199982      -7.10511983E-07
   71.0400009      -7.44509407E-07
   71.1600037      -6.57943872E-07
   71.2799988      -4.51656092E-07
   71.4000015      -1.37437837E-07
   71.5199966       2.62838114E-07
   71.6399994       7.18897297E-07
   71.7600021       1.19442984E-06
   71.8799973       1.64996629E-06
   72.0000000       2.04604544E-06
   72.1200027       2.34642334E-06
   72.2399979       2.52107247E-06
   72.3600006       2.54872248E-06
   72.4800034       2.41873227E-06
   72.5999985       2.13212365E-06
   72.7200012       1.70168892E-06