  -30.0000000       0.00000000    
  -29.8799992       0.00000000    
  -29.7600002       0.00000000    
  -29.6399994       0.00000000    
  -29.5200005       0.00000000    
  -29.3999996       0.00000000    
  -29.2800007      -6.34788204E-43
  -29.1599998      -4.32160446E-42
  -29.0400009      -1.03415827E-41
  -28.9200001      -8.01542722E-43
  -28.7999992       1.02015930E-40
  -28.6800003       5.69821205E-40
  -28.5599995       2.33944537E-39
  -28.4400005       8.03360626E-39
  -28.3199997       2.27548198E-38
  -28.2000008       5.13303699E-38
  -28.0799999       8.65217892E-38
  -27.9599991       8.66923833E-38
  -27.8400002      -4.20161772E-38
  -27.7199993      -4.18311313E-37
  -27.6000004      -1.06262853E-36
  -27.4799995      -1.67567710E-36
  -27.3600006      -1.44653579E-36
  -27.2399998       8.18564485E-37
  -27.1200008       5.91559066E-36
  -27.0000000       1.27656434E-35
  -26.8799992       1.68845127E-35
  -26.7600002       1.02624624E-35
  -26.6399994      -1.55975990E-35
  -26.5200005      -6.27710080E-35
  -26.3999996      -1.18044130E-34
  -26.2800007      -1.47330424E-34
  -26.1599998      -1.00507051E-34
  -26.0400009       6.82152401E-35
  -25.9200001       3.66345914E-34
  -25.7999992       7.27798236E-34
  -25.6800003       9.96782383E-34
  -25.5599995       9.51728256E-34
  -25.4400005       3.78384675E-34
  -25.3199997      -8.20348487E-34
  -25.2000008      -2.51341796E-33
  -25.0799999      -4.27822932E-33
  -24.9599991      -5.42845054E-33
  -24.8400002      -5.15250692E-33
  -24.7199993      -2.74791090E-33
  -24.6000004       2.09504538E-33
  -24.4799995       9.02551836E-33
  -24.3600006       1.68501032E-32
  -24.2399998       2.35031353E-32
  -24.1200008       2.62318941E-32
  -24.0000000       2.20531248E-32
  -23.8799992       8.51396012E-33
  -23.7600002      -1.52733421E-32
  -23.6399994      -4.74728478E-32
  -23.5200005      -8.25570489E-32
  -23.3999996      -1.11001908E-31
  -23.2800007      -1.20180650E-31
  -23.1599998      -9.68621333E-32
  -23.0400009      -3.13305685E-32
  -22.9200001       7.74842853E-32
  -22.7999992       2.17203309E-31
  -22.6800003       3.59425218E-31
  -22.5599995       4.61387692E-31
  -22.4400005       4.73240672E-31
  -22.3199997       3.50902226E-31
  -22.2000008       7.24968332E-32
  -22.0799999      -3.45638057E-31
  -21.9599991      -8.38753399E-31
  -21.8400002      -1.29469521E-30
  -21.7199993      -1.56978168E-30
  -21.6000004      -1.51974981E-30
  -21.4799995      -1.04136847E-30
  -21.3600006      -1.15650471E-31
  -21.2399998       1.15967953E-30
  -21.1200008       2.56126753E-30
  -21.0000000       3.76417365E-30
  -20.8799992       4.40093462E-30
  -20.7600002       4.14766580E-30
  -20.6399994       2.81911550E-30
  -20.5200005       4.47982214E-31
  -20.3999996      -2.67608869E-30
  -20.2800007      -6.02428479E-30
  -20.1599998      -8.90516904E-30
  -20.0400009      -1.05860094E-29
  -19.9200001      -1.04336811E-29
  -19.7999992      -8.04803543E-30
  -19.6800003      -3.36835555E-30
  -19.5599995       3.25449773E-30
  -19.4400005       1.10203893E-29
  -19.3199997       1.86816815E-29
  -19.2000008       2.46070081E-29
  -19.0799999       2.69497333E-29
  -18.9599991       2.39682042E-29
  -18.8400002       1.45151818E-29
  -18.7199993      -1.35761473E-30
  -18.6000004      -2.18332883E-29
  -18.4799995      -4.30467762E-29
  -18.3600006      -5.93623067E-29
  -18.2399998      -6.44153390E-29
  -18.1200008      -5.29228396E-29
  -18.0000000      -2.29617944E-29
  -17.8799992       2.19182067E-29
  -17.7600002       7.16297221E-29
  -17.6399994       1.10436723E-28
  -17.5200005       1.20395358E-28
  -17.3999996       8.72513131E-29
  -17.2800007       7.69711218E-30
  -17.1599998      -1.04190776E-28
  -17.0400009      -2.14302053E-28
  -16.9200001      -2.72614589E-28
  -16.7999992      -2.25901038E-28
  -16.6800003      -3.83099695E-29
  -16.5599995       2.84455568E-28
  -16.4400005       6.75331379E-28
  -16.3199997       1.00079775E-27
  -16.2000008       1.08023148E-27
  -16.0799999       7.34599033E-28
  -15.9600000      -1.39855628E-28
  -15.8400002      -1.48937777E-27
  -15.7200003      -3.03998855E-27
  -15.6000004      -4.28870047E-27
  -15.4799995      -4.57926244E-27
  -15.3599997      -3.27573066E-27
  -15.2399998      -1.65282420E-29
  -15.1199999       5.00708159E-27
  -15.0000000       1.08406082E-26
  -14.8800001       1.57361758E-26
  -14.7600002       1.74025042E-26
  -14.6400003       1.35803191E-26
  -14.5200005       2.89106332E-27
  -14.3999996      -1.42183966E-26
  -14.2799997      -3.47334655E-26
  -14.1599998      -5.29012896E-26
  -14.0400000      -6.09729391E-26
  -13.9200001      -5.10336522E-26
  -13.8000002      -1.77877672E-26
  -13.6800003       3.82439151E-26
  -13.5600004       1.08067078E-25
  -13.4399996       1.73314664E-25
  -13.3199997       2.08277373E-25
  -13.1999998       1.85549181E-25
  -13.0799999       8.50089207E-26
  -12.9600000      -9.54642490E-26
  -12.8400002      -3.30523105E-25
  -12.7200003      -5.63088865E-25
  -12.6000004      -7.09280666E-25
  -12.4799995      -6.75167757E-25
  -12.3599997      -3.85054249E-25
  -12.2399998       1.83171468E-25
  -12.1199999       9.64652543E-25
  -12.0000000       1.78870404E-24
  -11.8800001       2.38784528E-24
  -11.7600002       2.44466062E-24
  -11.6400003       1.67798840E-24
  -11.5200005      -4.28641008E-26
  -11.3999996      -2.58199617E-24
  -11.2799997      -5.45766949E-24
  -11.1599998      -7.84403920E-24
  -11.0400000      -8.69073465E-24
  -10.9200001      -6.97426089E-24
  -10.8000002      -2.05717175E-24
  -10.6800003       5.91619489E-24
  -10.5600004       1.57032971E-23
  -10.4399996       2.48683872E-23
  -10.3199997       3.00418175E-23
  -10.1999998       2.76091882E-23
  -10.0799999       1.47978883E-23
  -9.96000004      -9.01695704E-24
  -9.84000015      -4.11171375E-23
  -9.72000027      -7.47980682E-23
  -9.60000038      -9.97359367E-23
  -9.47999954      -1.03699445E-22
  -9.35999966      -7.56525812E-23
  -9.23999977      -9.86750608E-24
  -9.11999989       8.98260704E-23
  -9.00000000       2.06954869E-22
  -8.88000011       3.11976287E-22
  -8.76000023       3.65816814E-22
  -8.64000034       3.27991502E-22
  -8.52000046       1.68745224E-22
  -8.39999962      -1.16842064E-22
  -8.27999973      -4.96339569E-22
  -8.15999985      -8.93611536E-22
  -8.03999996      -1.19323196E-21
  -7.92000008      -1.25890720E-21
  -7.80000019      -9.66208247E-22
  -7.67999983      -2.45679761E-22
  -7.55999994       8.72395343E-22
  -7.44000006       2.22440115E-21
  -7.32000017       3.50570089E-21
  -7.19999981       4.30185577E-21
  -7.07999992       4.16544932E-21
  -6.96000004       2.73440546E-21
  -6.84000015      -1.26173808E-22
  -6.71999979      -4.19065693E-21
  -6.59999990      -8.79015272E-21
  -6.48000002      -1.28243602E-20
  -6.36000013      -1.49017217E-20
  -6.23999977      -1.36177936E-20
  -6.11999989      -7.94619423E-21
  -6.00000000       2.32505102E-21
  -5.88000011       1.62166546E-20
  -5.76000023       3.13674772E-20
  -5.63999987       4.41512402E-20
  -5.51999998       5.01801816E-20
  -5.40000010       4.51973232E-20
  -5.28000021       2.62541827E-20
  -5.15999985      -7.04153975E-21
  -5.03999996      -5.15142204E-20
  -4.92000008      -9.99879187E-20
  -4.80000019      -1.41733249E-19
  -4.67999983      -1.63956878E-19
  -4.55999994      -1.54275181E-19
  -4.44000006      -1.03843950E-19
  -4.32000017      -1.05548246E-20
  -4.19999981       1.18464710E-19
  -4.07999992       2.65831964E-19
  -3.96000004       4.04972609E-19
  -3.83999991       5.03487054E-19
  -3.72000003       5.28514541E-19
  -3.59999990       4.53238366E-19
  -3.48000002       2.63258398E-19
  -3.35999990      -3.85741203E-20
  -3.24000001      -4.30002009E-19
  -3.11999989      -8.70366575E-19
  -3.00000000      -1.30432900E-18
  -2.88000011      -1.66696580E-18
  -2.75999999      -1.88838034E-18
  -2.64000010      -1.89622325E-18
  -2.51999998      -1.61574120E-18
  -2.40000010      -9.69104023E-19
  -2.27999997       1.21677105E-19
  -2.16000009       1.72187147E-18
  -2.03999996       3.85444907E-18
  -1.91999996       6.44967944E-18
  -1.79999995       9.27612664E-18
  -1.67999995       1.18653831E-17
  -1.55999994       1.34551324E-17
  -1.44000006       1.29865503E-17
  -1.32000005       9.19817148E-18
  -1.20000005       8.53818051E-19
  -1.08000004      -1.28774502E-17
 -0.959999979      -3.19086212E-17
 -0.839999974      -5.46614316E-17
 -0.720000029      -7.75661157E-17
 -0.600000024      -9.48237503E-17
 -0.479999989      -9.86522201E-17
 -0.360000014      -8.02219743E-17
 -0.239999995      -3.14067409E-17
 -0.119999997       5.26833284E-17
  -1.11022302E-15   1.70647916E-16
  0.119999997       3.11757041E-16
  0.239999995       4.53726910E-16
  0.360000014       5.62294034E-16
  0.479999989       5.93588619E-16
  0.600000024       5.00075758E-16
  0.720000029       2.40306371E-16
  0.839999974      -2.08110092E-16
  0.959999979      -8.33943377E-16
   1.08000004      -1.57894215E-15
   1.20000005      -2.32928703E-15
   1.32000005      -2.91606720E-15
   1.44000006      -3.12866739E-15
   1.55999994      -2.74364432E-15
   1.67999995      -1.56924987E-15
   1.79999995       4.97718466E-16
   1.91999996       3.41018535E-15
   2.03999996       6.91579616E-15
   2.16000009       1.05235001E-14
   2.27999997       1.35078284E-14
   2.40000010       1.49652511E-14
   2.51999998       1.39314321E-14
   2.64000010       9.55865331E-15
   2.75999999       1.33969029E-15
   2.88000011      -1.06505448E-14
   3.00000000      -2.55386261E-14
   3.11999989      -4.15153412E-14
   3.24000001      -5.58348228E-14
   3.35999990      -6.50005562E-14
   3.48000002      -6.51693462E-14
   3.59999990      -5.27722837E-14
   3.72000003      -2.53087092E-14
   3.83999991       1.77793571E-14
   3.96000004       7.42919452E-14
   4.07999992       1.38690234E-13
   4.19999981       2.01939173E-13
   4.32000017       2.51945844E-13
   4.44000006       2.74711298E-13
   4.55999994       2.56219172E-13
   4.67999983       1.84959022E-13
   4.80000019       5.48335418E-14
   4.92000008      -1.31946334E-13
   5.03999996      -3.62494784E-13
   5.15999985      -6.11990710E-13
   5.28000021      -8.44083050E-13
   5.40000010      -1.01339499E-12
   5.51999998      -1.07033035E-12
   5.63999987      -9.68050293E-13
   5.76000023      -6.71089649E-13
   5.88000011      -1.64660820E-13
   6.00000000       5.36678829E-13
   6.11999989       1.38257819E-12
   6.23999977       2.28430361E-12
   6.36000013       3.11747199E-12
   6.48000002       3.73110137E-12
   6.59999990       3.96325204E-12
   6.71999979       3.66256634E-12
   6.84000015       2.71397423E-12
   6.96000004       1.06575295E-12
   7.07999992      -1.24571176E-12
   7.19999981      -4.07763970E-12
   7.32000017      -7.17322599E-12
   7.44000006      -1.01682577E-11
   7.55999994      -1.26143158E-11
   7.67999983      -1.40190880E-11
   7.80000019      -1.39020731E-11
   7.92000008      -1.18614858E-11
   8.03999996      -7.64588046E-12
   8.15999985      -1.22213145E-12
   8.27999973       7.16966070E-12
   8.39999962       1.69837460E-11
   8.52000046       2.73669906E-11
   8.64000034       3.71935573E-11
   8.76000023       4.51382126E-11
   8.88000011       4.97862515E-11
   9.00000000       4.97732515E-11
   9.11999989       4.39440394E-11
   9.23999977       3.15164422E-11
   9.35999966       1.22336447E-11
   9.47999954      -1.35113578E-11
   9.60000038      -4.45941652E-11
   9.72000027      -7.91317151E-11
   9.84000015      -1.14516299E-10
   9.96000004      -1.47512502E-10
   10.0799999      -1.74413373E-10
   10.1999998      -1.91248004E-10
   10.3199997      -1.94030098E-10
   10.4399996      -1.79036466E-10
   10.5600004      -1.43106416E-10
   10.6800003      -8.39555300E-11
   10.8000002      -5.01983383E-13
   10.9200001       1.06794004E-10
   11.0400000       2.35576253E-10
   11.1599998       3.81227105E-10
   11.2799997       5.36502343E-10
   11.3999996       6.91195323E-10
   11.5200005       8.31880342E-10
   11.6400003       9.41813294E-10
   11.7600002       1.00109199E-09
   11.8800001       9.87204207E-10
   12.0000000       8.76102302E-10
   12.1199999       6.43936682E-10
   12.2399998       2.69553962E-10
   12.3599997      -2.62199568E-10
   12.4799995      -9.56420720E-10
   12.6000004      -1.80351634E-09
   12.7200003      -2.77432965E-09
   12.8400002      -3.81553900E-09
   12.9600000      -4.84599694E-09
   13.0799999      -5.75485259E-09
   13.1999998      -6.40235953E-09
   13.3199997      -6.62432331E-09
   13.4399996      -6.24100238E-09
   13.5600004      -5.07107023E-09
   13.6800003      -2.95083402E-09
   13.8000002       2.41634546E-10
   13.9200001       4.55848337E-09
   14.0400000       9.95200278E-09
   14.1599998       1.62451261E-08
   14.2799997       2.31059332E-08
   14.3999996       3.00301934E-08
   14.5200005       3.63364236E-08
   14.6400003       4.11778345E-08
   14.7600002       4.35751524E-08
   14.8800001       4.24732249E-08
   15.0000000       3.68226587E-08
   15.1199999       2.56856669E-08
   15.2399998       8.36238634E-09
   15.3599997      -1.54689204E-08
   15.4799995      -4.56076137E-08
   15.6000004      -8.11952034E-08
   15.7200003      -1.20604000E-07
   15.8400002      -1.61366771E-07
   15.9600000      -2.00164919E-07
   16.0799999      -2.32891480E-07
   16.2000008      -2.54802586E-07
   16.3199997      -2.60766512E-07
   16.4400005      -2.45613279E-07
   16.5599995      -2.04579763E-07
   16.6800003      -1.33836451E-07
   16.7999992      -3.10730712E-08
   16.9200001       1.03889583E-07
   17.0400009       2.68501850E-07
   17.1599998       4.56948669E-07
   17.2800007       6.59724606E-07
   17.3999996       8.63371497E-07
   17.5200005       1.05042750E-06
   17.6399994       1.19962624E-06
   17.7600002       1.28637612E-06
   17.8799992       1.28353349E-06
   18.0000000       1.16246531E-06
   18.1200008       8.94378104E-07
   18.2399998       4.51867038E-07
   18.3600006      -1.89377843E-07
   18.4799995      -1.04879098E-06
   18.6000004      -2.13917156E-06
   18.7199993      -3.46505158E-06
   18.8400002      -5.02129433E-06
   18.9599991      -6.79203686E-06
   19.0799999      -8.75005935E-06
   19.2000008      -1.08566592E-05
   19.3199997      -1.30621020E-05
   19.4400005      -1.53066358E-05
   19.5599995      -1.75221048E-05
   19.6800003      -1.96340861E-05
   19.7999992      -2.15645105E-05
   19.9200001      -2.32346320E-05
   20.0400009      -2.45682531E-05
   20.1599998      -2.54950301E-05
   20.2800007      -2.59537137E-05
   20.3999996      -2.58951695E-05
   20.5200005      -2.52849932E-05
   20.6399994      -2.41056259E-05
   20.7600002      -2.23578099E-05
   20.8799992      -2.00612976E-05
   21.0000000      -1.72547880E-05
   21.1200008      -1.39950571E-05
   21.2399998      -1.03552902E-05
   21.3600006      -6.42271607E-06
   21.4799995      -2.29560283E-06
   21.6000004       1.92021730E-06
   21.7199993       6.11516452E-06
   21.8400002       1.01798869E-05
   21.9599991       1.40092252E-05
   22.0799999       1.75059758E-05
   22.2000008       2.05843062E-05
   22.3199997       2.31726735E-05
   22.4400005       2.52161099E-05
   22.5599995       2.66778279E-05
   22.6800003       2.75400489E-05
   22.7999992       2.78040843E-05
   22.9200001       2.74896720E-05
   23.0400009       2.66336210E-05
   23.1599998       2.52878690E-05
   23.2800007       2.35170373E-05
   23.3999996       2.13956409E-05
   23.5200005       1.90050432E-05
   23.6399994       1.64303474E-05
   23.7600002       1.37573061E-05
   23.8799992       1.10693982E-05
   24.0000000       8.44516126E-06
   24.1200008       5.95587244E-06
   24.2399998       3.66362883E-06
   24.3600006       1.61988146E-06
   24.4799995      -1.35574410E-07
   24.6000004      -1.57514467E-06
   24.7199993      -2.68354233E-06
   24.8400002      -3.45748344E-06
   24.9599991      -3.90501918E-06
   25.0799999      -4.04454977E-06
   25.2000008      -3.90358628E-06
   25.3199997      -3.51729500E-06
   25.4400005      -2.92690243E-06
   25.5599995      -2.17799516E-06
   25.6800003      -1.31877471E-06
   25.7999992      -3.98309169E-07
   25.9200001       5.35173399E-07
   26.0400009       1.43590785E-06
   26.1599998       2.26209363E-06
   26.2800007       2.97723432E-06
   26.3999996       3.55128486E-06
   26.5200005       3.96156611E-06
   26.6399994       4.19342086E-06
   26.7600002       4.24058817E-06
   26.8799992       4.10526945E-06
   27.0000000       3.79788275E-06
   27.1200008       3.33649609E-06
   27.2399998       2.74595959E-06
   27.3600006       2.05675019E-06
   27.4799995       1.30356875E-06
   27.6000004       5.23742131E-07
   27.7199993      -2.44513188E-07
   27.8400002      -9.63887828E-07
   27.9599991      -1.59975889E-06
   28.0799999      -2.12186569E-06
   28.2000008      -2.50579797E-06
   28.3199997      -2.73421779E-06
   28.4400005      -2.79774281E-06
   28.5599995      -2.69544216E-06
   28.6800003      -2.43490308E-06
   28.7999992      -2.03185868E-06
   28.9200001      -1.50938422E-06
   29.0400009      -8.96696747E-07
   29.1599998      -2.27615445E-07
   29.2800007       4.61238642E-07
   29.3999996       1.13240833E-06
   29.5200005       1.74962292E-06
   29.6399994       2.27976420E-06
   29.7600002       2.69466364E-06
   29.8799992       2.97262432E-06
   30.0000000       3.09958182E-06
   30.1200008       3.06982997E-06
   30.2399998       2.88627371E-06
   30.3600006       2.56018916E-06
   30.4799995       2.11051020E-06
   30.6000004       1.56268004E-06
   30.7199993       9.47143349E-07
   30.8400002       2.97566430E-07
   30.9599991      -3.51103807E-07
   31.0799999      -9.64625997E-07
   31.2000008      -1.51137590E-06
   31.3199997      -1.96406972E-06
   31.4400005      -2.30120440E-06
   31.5599995      -2.50812764E-06
   31.6800003      -2.57769284E-06
   31.7999992      -2.51046549E-06
   31.9200001      -2.31448553E-06
   32.0400009      -2.00461750E-06
   32.1599998      -1.60153581E-06
   32.2799988      -1.13042586E-06
   32.4000015      -6.19482364E-07
   32.5200005      -9.83038575E-08
   32.6399994       4.03723618E-07
   32.7599983       8.58959254E-07
   32.8800011       1.24287794E-06
   33.0000000       1.53521194E-06
   33.1199989       1.72081661E-06
   33.2400017       1.79023061E-06
   33.3600006       1.73992373E-06
   33.4799995       1.57223917E-06
   33.5999985       1.29505622E-06
   33.7200012       9.21208368E-07
   33.8400002       4.67703018E-07
   33.9599991      -4.52096209E-08
   34.0800018      -5.95063511E-07
   34.2000008      -1.15825105E-06
   34.3199997      -1.71109423E-06
   34.4399986      -2.23086977E-06
   34.5600014      -2.69674842E-06
   34.6800003      -3.09061670E-06
   34.7999992      -3.39775261E-06
   34.9199982      -3.60733770E-06
   35.0400009      -3.71279179E-06
   35.1599998      -3.71192073E-06
   35.2799988      -3.60687773E-06
   35.4000015      -3.40394490E-06
   35.5200005      -3.11314398E-06
   35.6399994      -2.74769741E-06
   35.7599983      -2.32335947E-06
   35.8800011      -1.85765600E-06
   36.0000000      -1.36905999E-06
   36.1199989      -8.76148761E-07
   36.2400017      -3.96779313E-07
   36.3600006       5.26747890E-08
   36.4799995       4.57989330E-07
   36.5999985       8.07625156E-07
   36.7200012       1.09310884E-06
   36.8400002       1.30924263E-06
   36.9599991       1.45413560E-06
   37.0800018       1.52906227E-06
   37.2000008       1.53816052E-06
   37.3199997       1.48799359E-06
   37.4399986       1.38700750E-06
   37.5600014       1.24491862E-06
   37.6800003       1.07207563E-06
   37.7999992       8.78831088E-07
   37.9199982       6.74967112E-07
   38.0400009       4.69203371E-07
   38.1599998       2.68818582E-07
   38.2799988       7.94006709E-08
   38.4000015      -9.52624575E-08
   38.5200005      -2.53153615E-07
   38.6399994      -3.93866912E-07
   38.7599983      -5.18336606E-07
   38.8800011      -6.28479654E-07
   39.0000000      -7.26781650E-07
   39.1199989      -8.15861256E-07
   39.2400017      -8.98047574E-07
   39.3600006      -9.75005491E-07
   39.4799995      -1.04743719E-06
   39.5999985      -1.11488839E-06
   39.7200012      -1.17567083E-06
   39.8400002      -1.22691256E-06
   39.9599991      -1.26473299E-06
   40.0800018      -1.28452882E-06
   40.2000008      -1.28135014E-06
   40.3199997      -1.25033887E-06
   40.4399986      -1.18719220E-06
   40.5600014      -1.08861593E-06
   40.6800003      -9.52727589E-07
   40.7999992      -7.79376251E-07
   40.9199982      -5.70348845E-07
   41.0400009      -3.29443225E-07
   41.1599998      -6.23979375E-08
   41.2799988       2.23320441E-07
   41.4000015       5.18858997E-07
   41.5200005       8.14425960E-07
   41.6399994       1.09981170E-06
   41.7599983       1.36494543E-06
   41.8800011       1.60044453E-06
   42.0000000       1.79811957E-06
   42.1199989       1.95139410E-06
   42.2400017       2.05561491E-06
   42.3600006       2.10822941E-06
   42.4799995       2.10882581E-06
   42.5999985       2.05903325E-06
   42.7200012       1.96230030E-06
   42.8400002       1.82357735E-06
   42.9599991       1.64892413E-06
   43.0800018       1.44508658E-06
   43.2000008       1.21907419E-06
   43.3199997       9.77771947E-07
   43.4399986       7.27614236E-07
   43.5600014       4.74342613E-07
   43.6800003       2.22856187E-07
   43.7999992      -2.28422827E-08
   43.9199982      -2.59613728E-07
   44.0400009      -4.85078488E-07
   44.1599998      -6.97461871E-07
   44.2799988      -8.95412711E-07
   44.4000015      -1.07781955E-06
   44.5200005      -1.24364544E-06
   44.6399994      -1.39179826E-06
   44.7599983      -1.52104758E-06
   44.8800011      -1.62999220E-06
   45.0000000      -1.71707586E-06
   45.1199989      -1.78064283E-06
   45.2400017      -1.81902283E-06
   45.3600006      -1.83063003E-06
   45.4799995      -1.81406278E-06
   45.5999985      -1.76819321E-06
   45.7200012      -1.69223904E-06
   45.8400002      -1.58581395E-06
   45.9599991      -1.44896148E-06
   46.0800018      -1.28217619E-06
   46.2000008      -1.08642246E-06
   46.3199997      -8.63160778E-07
   46.4399986      -6.14390387E-07
   46.5600014      -3.42712099E-07
   46.6800003      -5.14128757E-08
   46.7999992       2.55434543E-07
   46.9199982       5.72868544E-07
   47.0400009       8.94950858E-07
   47.1599998       1.21471453E-06
   47.2799988       1.52417340E-06
   47.4000015       1.81441283E-06
   47.5200005       2.07578069E-06
   47.6399994       2.29819034E-06
   47.7599983       2.47153162E-06
   47.8800011       2.58618206E-06
   48.0000000       2.63359061E-06
   48.1199989       2.60689967E-06
   48.2400017       2.50156018E-06
   48.3600006       2.31589001E-06
   48.4799995       2.05152060E-06
   48.5999985       1.71368208E-06
   48.7200012       1.31129264E-06
   48.8400002       8.56813074E-07
   48.9599991       3.65863656E-07
   49.0800018      -1.43393862E-07
   49.2000008      -6.51080597E-07
   49.3199997      -1.13658621E-06
   49.4399986      -1.57965417E-06
   49.5600014      -1.96149449E-06
   49.6800003      -2.26584825E-06
   49.7999992      -2.47992602E-06
   49.9199982      -2.59515400E-06
   50.0400009      -2.60767479E-06
   50.1599998      -2.51856181E-06
   50.2799988      -2.33373908E-06
   50.4000015      -2.06360755E-06
   50.5200005      -1.72241005E-06
   50.6399994      -1.32737966E-06
   50.7599983      -8.97737834E-07
   50.8800011      -4.53608806E-07
   51.0000000      -1.49297925E-08
   51.1199989       3.99574560E-07
   51.2400017       7.73288150E-07
   51.3600006       1.09242058E-06
   51.4799995       1.34651077E-06
   51.5999985       1.52870427E-06
   51.7200012       1.63580205E-06
   51.8400002       1.66810230E-06
   51.9599991       1.62906588E-06
   52.0800018       1.52484643E-06
   52.2000008       1.36373183E-06
   52.3199997       1.15554678E-06
   52.4399986       9.11060340E-07
   52.5600014       6.41438817E-07
   52.6800003       3.57773928E-07
   52.7999992       7.07060579E-08
   52.9199982      -2.09850754E-07
   53.0400009      -4.74884502E-07
   53.1599998      -7.16375723E-07
   53.2799988      -9.27322958E-07
   53.4000015      -1.10172823E-06
   53.5200005      -1.23456994E-06
   53.6399994      -1.32178639E-06
   53.7599983      -1.36029132E-06
   53.8800011      -1.34803372E-06
   54.0000000      -1.28410636E-06
   54.1199989      -1.16889817E-06
   54.2400017      -1.00427701E-06
   54.3600006      -7.93779407E-07
   54.4799995      -5.42778878E-07
   54.5999985      -2.58600721E-07
   54.7200012       4.94508328E-08
   54.8400002       3.70182562E-07
   54.9599991       6.90743491E-07
   55.0800018       9.97012194E-07
   55.2000008       1.27414035E-06
   55.3199997       1.50724270E-06
   55.4399986       1.68220458E-06
   55.5600014       1.78656501E-06
   55.6800003       1.81042117E-06
   55.7999992       1.74728928E-06
   55.9199982       1.59485251E-06
   56.0400009       1.35552318E-06
   56.1599998       1.03675768E-06
   56.2799988       6.51069286E-07
   56.4000015       2.15705739E-07
   56.5200005      -2.48021280E-07
   56.6399994      -7.15740612E-07
   56.7599983      -1.16131832E-06
   56.8800011      -1.55837847E-06
   57.0000000      -1.88195702E-06
   57.1199989      -2.11018028E-06
   57.2400017      -2.22584708E-06
   57.3600006      -2.21779601E-06
   57.4799995      -2.08194592E-06
   57.5999985      -1.82191525E-06
   57.7200012      -1.44915134E-06
   57.8400002      -9.82540428E-07
   57.9599991      -4.47498735E-07
   58.0800018       1.25412711E-07
   58.2000008       7.02267073E-07
   58.3199997       1.24783571E-06
   58.4399986       1.72780005E-06
   58.5600014       2.11096176E-06
   58.6800003       2.37129552E-06
   58.7999992       2.48970036E-06
   58.9199982       2.45532124E-06
   59.0400009       2.26634234E-06
   59.1599998       1.93019150E-06
   59.2799988       1.46313732E-06
   59.4000015       8.89302726E-07
   59.5200005       2.39163796E-07
   59.6399994      -4.52359131E-07
   59.7599983      -1.14808540E-06
   59.8800011      -1.81087546E-06
   60.0000000      -2.40589065E-06
   60.1199989      -2.90265280E-06
   60.2400017      -3.27676867E-06
   60.3600006      -3.51120866E-06
   60.4799995      -3.59706314E-06
   60.5999985      -3.53375253E-06
   60.7200012      -3.32869195E-06
   60.8400002      -2.99646899E-06
   60.9599991      -2.55761529E-06
   61.0800018      -2.03708078E-06
   61.2000008      -1.46253763E-06
   61.3199997      -8.62639183E-07
   61.4399986      -2.65355709E-07
   61.5600014       3.03512621E-07
   61.6800003       8.21563845E-07
   61.7999992       1.27071314E-06
   61.9199982       1.63777997E-06
   62.0400009       1.91474373E-06
   62.1599998       2.09869631E-06
   62.2799988       2.19152935E-06
   62.4000015       2.19940853E-06
   62.5200005       2.13208637E-06
   62.6399994       2.00211207E-06
   62.7599983       1.82398139E-06
   62.8800011       1.61327159E-06
   63.0000000       1.38579526E-06
   63.1199989       1.15679836E-06
   63.2400017       9.40227721E-07
   63.3600006       7.48085768E-07
   63.4799995       5.89889169E-07
   63.5999985       4.72248018E-07
   63.7200012       3.98580511E-07
   63.8400002       3.68978618E-07
   63.9599991       3.80235633E-07
   64.0800018       4.26042533E-07
   64.1999969       4.97353767E-07
   64.3199997       5.82914595E-07
   64.4400024       6.69930216E-07
   64.5599976       7.44850297E-07
   64.6800003       7.94229038E-07
   64.8000031       8.05616367E-07
   64.9199982       7.68427469E-07
   65.0400009       6.74740193E-07
   65.1600037       5.19966306E-07
   65.2799988       3.03354909E-07
   65.4000015       2.82882802E-08
   65.5199966      -2.97651184E-07
   65.6399994      -6.62856678E-07
   65.7600021      -1.05211245E-06
   65.8799973      -1.44723185E-06
   66.0000000      -1.82789222E-06
   66.1200027      -2.17262732E-06
   66.2399979      -2.45993351E-06
   66.3600006      -2.66943402E-06
   66.4800034      -2.78305038E-06
   66.5999985      -2.78612470E-06
   66.7200012      -2.66843085E-06
   66.8399963      -2.42502756E-06
   66.9599991      -2.05689571E-06
   67.0800018      -1.57131467E-06
   67.1999969      -9.81939593E-07
   67.3199997      -3.08546390E-07
   67.4400024       4.23569873E-07
   67.5599976       1.18454477E-06
   67.6800003       1.94122254E-06
   67.8000031       2.65872154E-06
   67.9199982       3.30221474E-06
   68.0400009       3.83884435E-06
   68.1600037       4.23964821E-06
   68.2799988       4.48138053E-06
   68.4000015       4.54809424E-06
   68.5199966       4.43235331E-06
   68.6399994       4.13597172E-06
   68.7600021       3.67019175E-06
   68.8799973       3.05526123E-06
   69.0000000       2.31941385E-06
   69.1200027       1.49729635E-06
   69.2399979       6.27947259E-07
   69.3600006      -2.47537912E-07
   69.4800034      -1.08848656E-06
   69.5999985      -1.85708973E-06
   69.7200012      -2.52062000E-06
   69.8399963      -3.05326012E-06
   69.9599991      -3.43740862E-06
   70.0800018      -3.66437257E-06
   70.1999969      -3.73441117E-06
   70.3199997      -3.65614892E-06
   70.4400024      -3.44542855E-06
   70.5599976      -3.12372458E-06
   70.6800003      -2.71626504E-06
   70.8000031      -2.25003237E-06
   70.9199982      -1.75181310E-06
   71.0400009      -1.24646283E-06
   71.1600037      -7.55508438E-07
   71.2799988      -2.96187693E-07
   71.4000015       1.19028812E-07
   71.5199966       4.82434643E-07
   71.6399994       7.90650006E-07
   71.7600021       1.04383741E-06
   71.8799973       1.24468852E-06
   72.0000000       1.39731560E-06
   72.1200027       1.50618621E-06
   72.2399979       1.57522595E-06
   72.3600006       1.60718912E-06
   72.4800034       1.60336390E-06
   72.5999985       1.56363114E-06
   72.7200012       1.48685615E-06