  -30.0000000       0.00000000    
  -29.8799992       0.00000000    
  -29.7600002       0.00000000    
  -29.6399994       0.00000000    
  -29.5200005       0.00000000    
  -29.3999996       0.00000000    
  -29.2800007      -1.58346726E-43
  -29.1599998      -1.14906474E-42
  -29.0400009      -6.11947039E-42
  -28.9200001      -1.61275440E-41
  -28.7999992      -5.23104717E-42
  -28.6800003       1.32794049E-40
  -28.5599995       6.49305656E-40
  -28.4400005       1.86460277E-39
  -28.3199997       3.66783988E-39
  -28.2000008       4.28537529E-39
  -28.0799999      -1.47303093E-39
  -27.9599991      -2.28994254E-38
  -27.8400002      -6.93568471E-38
  -27.7199993      -1.36759881E-37
  -27.6000004      -1.83013021E-37
  -27.4799995      -1.02249991E-37
  -27.3600006       2.72807632E-37
  -27.2399998       1.09351691E-36
  -27.1200008       2.30400803E-36
  -27.0000000       3.35894031E-36
  -26.8799992       2.99950604E-36
  -26.7600002      -6.16075646E-37
  -26.6399994      -9.07988886E-36
  -26.5200005      -2.20555557E-35
  -26.3999996      -3.51690805E-35
  -26.2800007      -3.86930812E-35
  -26.1599998      -1.88845836E-35
  -26.0400009       3.63640756E-35
  -25.9200001       1.27524021E-34
  -25.7999992       2.32077942E-34
  -25.6800003       2.98226590E-34
  -25.5599995       2.51789352E-34
  -25.4400005       2.21557741E-35
  -25.3199997      -4.14341188E-34
  -25.2000008      -9.86613072E-34
  -25.0799999      -1.50031623E-33
  -24.9599991      -1.65611671E-33
  -24.8400002      -1.13302741E-33
  -24.7199993       2.68373763E-34
  -24.6000004       2.46057435E-33
  -24.4799995       4.94872248E-33
  -24.3600006       6.83296352E-33
  -24.2399998       6.99050842E-33
  -24.1200008       4.43928711E-33
  -24.0000000      -1.19292317E-33
  -23.8799992      -9.24499050E-33
  -23.7600002      -1.78343637E-32
  -23.6399994      -2.40678383E-32
  -23.5200005      -2.47125882E-32
  -23.3999996      -1.72300009E-32
  -23.2800007      -9.07102634E-34
  -23.1599998       2.22909493E-32
  -23.0400009       4.75201996E-32
  -22.9200001       6.77393548E-32
  -22.7999992       7.52501525E-32
  -22.6800003       6.37874486E-32
  -22.5599995       3.06330301E-32
  -22.4400005      -2.18368529E-32
  -22.3199997      -8.56434445E-32
  -22.2000008      -1.47957476E-31
  -22.0799999      -1.93038319E-31
  -21.9599991      -2.05057161E-31
  -21.8400002      -1.71389145E-31
  -21.7199993      -8.59518178E-32
  -21.6000004       4.78193923E-32
  -21.4799995       2.14820723E-31
  -21.3600006       3.87572948E-31
  -21.2399998       5.27763109E-31
  -21.1200008       5.90878645E-31
  -21.0000000       5.34444431E-31
  -20.8799992       3.29514929E-31
  -20.7600002      -2.62762543E-32
  -20.6399994      -4.97333745E-31
  -20.5200005      -1.00475050E-30
  -20.3999996      -1.43143069E-30
  -20.2800007      -1.64058104E-30
  -20.1599998      -1.50718293E-30
  -20.0400009      -9.57545661E-31
  -19.9200001      -7.48825534E-33
  -19.7999992       1.21325941E-30
  -19.6800003       2.46261778E-30
  -19.5599995       3.42149655E-30
  -19.4400005       3.76244746E-30
  -19.3199997       3.24063141E-30
  -19.2000008       1.78607602E-30
  -19.0799999      -4.29982903E-31
  -18.9599991      -2.98144243E-30
  -18.8400002      -5.24466835E-30
  -18.7199993      -6.52926964E-30
  -18.6000004      -6.26421805E-30
  -18.4799995      -4.20033434E-30
  -18.3600006      -5.74270180E-31
  -18.2399998       3.82644138E-30
  -18.1200008       7.74844423E-30
  -18.0000000       9.73219045E-30
  -17.8799992       8.52710749E-30
  -17.7600002       3.58822980E-30
  -17.6399994      -4.47523301E-30
  -17.5200005      -1.36677982E-29
  -17.3999996      -2.07621613E-29
  -17.2800007      -2.19555653E-29
  -17.1599998      -1.40224251E-29
  -17.0400009       4.22123256E-30
  -16.9200001       3.05278764E-29
  -16.7999992       5.84517331E-29
  -16.6800003       7.77942688E-29
  -16.5599995       7.66890258E-29
  -16.4400005       4.53429541E-29
  -16.3199997      -1.91769283E-29
  -16.2000008      -1.08438161E-28
  -16.0799999      -2.00308354E-28
  -15.9600000      -2.60788103E-28
  -15.8400002      -2.51380802E-28
  -15.7200003      -1.41881538E-28
  -15.6000004       7.37232140E-29
  -15.4799995       3.62931242E-28
  -15.3599997       6.48378808E-28
  -15.2399998       8.15930717E-28
  -15.1199999       7.41213061E-28
  -15.0000000       3.33367688E-28
  -14.8800001      -4.12514501E-28
  -14.7600002      -1.37043079E-27
  -14.6400003      -2.26719279E-27
  -14.5200005      -2.71540753E-27
  -14.3999996      -2.30734881E-27
  -14.2799997      -7.63569449E-28
  -14.1599998       1.89404020E-27
  -14.0400000       5.19932676E-27
  -13.9200001       8.19889486E-27
  -13.8000002       9.57481233E-27
  -13.6800003       7.96763304E-27
  -13.5600004       2.47497309E-27
  -13.4399996      -6.77776656E-27
  -13.3199997      -1.81754292E-26
  -13.1999998      -2.84873173E-26
  -13.0799999      -3.32884326E-26
  -12.9600000      -2.80350411E-26
  -12.8400002      -9.70892639E-27
  -12.7200003       2.13086075E-26
  -12.6000004       5.97196856E-26
  -12.4799995       9.48851819E-26
  -12.3599997       1.12174961E-25
  -12.2399998       9.64465534E-26
  -12.1199999       3.73898868E-26
  -12.0000000      -6.43351752E-26
  -11.8800001      -1.92043134E-25
  -11.7600002      -3.11418225E-25
  -11.6400003      -3.74592499E-25
  -11.5200005      -3.31123527E-25
  -11.3999996      -1.45152921E-25
  -11.2799997       1.84554884E-25
  -11.1599998       6.07591664E-25
  -11.0400000       1.01548181E-24
  -10.9200001       1.25316866E-24
  -10.8000002       1.15270870E-24
  -10.6800003       5.87511456E-25
  -10.5600004      -4.62657208E-25
  -10.4399996      -1.85408010E-24
  -10.3199997      -3.25286597E-24
  -10.1999998      -4.16402517E-24
  -10.0799999      -4.03124094E-24
  -9.96000004      -2.40488960E-24
  -9.84000015       8.49312796E-25
  -9.72000027       5.35557905E-24
  -9.60000038       1.01219003E-23
  -9.47999954       1.36003059E-23
  -9.35999966       1.39688760E-23
  -9.23999977       9.63893284E-24
  -9.11999989      -8.55832977E-26
  -9.00000000      -1.43553752E-23
  -8.88000011      -3.03577752E-23
  -8.76000023      -4.33837494E-23
  -8.64000034      -4.75761444E-23
  -8.52000046      -3.74103779E-23
  -8.39999962      -9.73160664E-24
  -8.27999973       3.40954266E-23
  -8.15999985       8.66030119E-23
  -8.03999996       1.33991963E-22
  -7.92000008       1.57937186E-22
  -7.80000019       1.39720986E-22
  -7.67999983       6.63348213E-23
  -7.55999994      -6.26258560E-23
  -7.44000006      -2.29227101E-22
  -7.32000017      -3.95038772E-22
  -7.19999981      -5.04828974E-22
  -7.07999992      -4.97430393E-22
  -6.96000004      -3.23293702E-22
  -6.84000015       3.41677841E-23
  -6.71999979       5.38825875E-22
  -6.59999990       1.09083090E-21
  -6.48000002       1.53167788E-21
  -6.36000013       1.67051851E-21
  -6.23999977       1.33215236E-21
  -6.11999989       4.20257001E-22
  -6.00000000      -1.01821491E-21
  -5.88000011      -2.74778696E-21
  -5.76000023      -4.34091299E-21
  -5.63999987      -5.23455805E-21
  -5.51999998      -4.85355333E-21
  -5.40000010      -2.78862315E-21
  -5.28000021       1.00553911E-21
  -5.15999985       6.04729895E-21
  -5.03999996       1.12665206E-20
  -4.92000008       1.51050741E-20
  -4.80000019       1.58126528E-20
  -4.67999983       1.19220080E-20
  -4.55999994       2.82389667E-21
  -4.44000006      -1.07017970E-20
  -4.32000017      -2.61856285E-20
  -4.19999981      -3.95863761E-20
  -4.07999992      -4.59550820E-20
  -3.96000004      -4.06488864E-20
  -3.83999991      -2.09223300E-20
  -3.72000003       1.24667120E-20
  -3.59999990       5.41495080E-20
  -3.48000002       9.40942956E-20
  -3.35999990       1.19047162E-19
  -3.24000001       1.15592726E-19
  -3.11999989       7.44816817E-20
  -3.00000000      -4.68925620E-21
  -2.88000011      -1.09853954E-19
  -2.75999999      -2.15554983E-19
  -2.64000010      -2.86161375E-19
  -2.51999998      -2.83892186E-19
  -2.40000010      -1.80989444E-19
  -2.27999997       2.62956581E-20
  -2.16000009       3.05875105E-19
  -2.03999996       5.85167159E-19
  -1.91999996       7.58459430E-19
  -1.79999995       7.09298948E-19
  -1.67999995       3.47241529E-19
  -1.55999994      -3.46837244E-19
  -1.44000006      -1.27824592E-18
  -1.32000005      -2.21460962E-18
  -1.20000005      -2.79778601E-18
  -1.08000004      -2.60511662E-18
 -0.959999979      -1.26391047E-18
 -0.839999974       1.39241246E-18
 -0.720000029       5.15716672E-18
 -0.600000024       9.32130476E-18
 -0.479999989       1.26431810E-17
 -0.360000014       1.34763446E-17
 -0.239999995       1.00938460E-17
 -0.119999997       1.20530834E-18
  -1.11022302E-15  -1.33979643E-17
  0.119999997      -3.22047948E-17
  0.239999995      -5.15506799E-17
  0.360000014      -6.56207211E-17
  0.479999989      -6.71023074E-17
  0.600000024      -4.86122002E-17
  0.720000029      -4.85736875E-18
  0.839999974       6.47410310E-17
  0.959999979       1.53489160E-16
   1.08000004       2.45684236E-16
   1.20000005       3.16577743E-16
   1.32000005       3.34850071E-16
   1.44000006       2.68092175E-16
   1.55999994       9.12001102E-17
   1.67999995      -2.03235762E-16
   1.79999995      -5.94409606E-16
   1.91999996      -1.02537118E-15
   2.03999996      -1.40094612E-15
   2.16000009      -1.59467230E-15
   2.27999997      -1.46699478E-15
   2.40000010      -8.95059715E-16
   2.51999998       1.88329332E-16
   2.64000010       1.75236304E-15
   2.75999999       3.63154492E-15
   2.88000011       5.50614741E-15
   3.00000000       6.91188753E-15
   3.11999989       7.28882778E-15
   3.24000001       6.07423886E-15
   3.35999990       2.83560140E-15
   3.48000002      -2.57100461E-15
   3.59999990      -9.84375528E-15
   3.72000003      -1.81160340E-14
   3.83999991      -2.59181138E-14
   3.96000004      -3.12604692E-14
   4.07999992      -3.18680222E-14
   4.19999981      -2.55721856E-14
   4.32000017      -1.08352023E-14
   4.44000006       1.26573141E-14
   4.55999994       4.34385939E-14
   4.67999983       7.78711676E-14
   4.80000019       1.10072236E-13
   4.92000008       1.32286909E-13
   5.03999996       1.35796214E-13
   5.15999985       1.12366002E-13
   5.28000021       5.61330394E-14
   5.40000010      -3.43014903E-14
   5.51999998      -1.53923098E-13
   5.63999987      -2.89943633E-13
   5.76000023      -4.21507122E-13
   5.88000011      -5.20889050E-13
   6.00000000      -5.56464813E-13
   6.11999989      -4.97470771E-13
   6.23999977      -3.20238681E-13
   6.36000013      -1.52028167E-14
   6.48000002       4.06399551E-13
   6.59999990       9.07494078E-13
   6.71999979       1.42328282E-12
   6.84000015       1.86386323E-12
   6.96000004       2.12230277E-12
   7.07999992       2.08841429E-12
   7.19999981       1.66751693E-12
   7.32000017       8.02366854E-13
   7.44000006      -5.04676325E-13
   7.55999994      -2.17307010E-12
   7.67999983      -4.03341553E-12
   7.80000019      -5.82887558E-12
   7.92000008      -7.23198411E-12
   8.03999996      -7.87845136E-12
   8.15999985      -7.41714589E-12
   8.27999973      -5.57250036E-12
   8.39999962      -2.21250232E-12
   8.52000046       2.58733074E-12
   8.64000034       8.49548817E-12
   8.76000023       1.49035471E-11
   8.88000011       2.09435403E-11
   9.00000000       2.55510699E-11
   9.11999989       2.75763284E-11
   9.23999977       2.59382845E-11
   9.35999966       1.98095030E-11
   9.47999954       8.81127463E-12
   9.60000038      -6.80768419E-12
   9.72000027      -2.60396912E-11
   9.84000015      -4.70647063E-11
   9.96000004      -6.73019071E-11
   10.0799999      -8.35840078E-11
   10.1999998      -9.24586310E-11
   10.3199997      -9.06040798E-11
   10.4399996      -7.53280563E-11
   10.5600004      -4.50996636E-11
   10.6800003      -4.98943199E-14
   10.8000002       5.76337936E-11
   10.9200001       1.23494479E-10
   11.0400000       1.90841842E-10
   11.1599998       2.51086429E-10
   11.2799997       2.94393065E-10
   11.3999996       3.10638987E-10
   11.5200005       2.90621194E-10
   11.6400003       2.27418681E-10
   11.7600002       1.17776580E-10
   11.8800001      -3.66446630E-11
   12.0000000      -2.28327593E-10
   12.1199999      -4.43431347E-10
   12.2399998      -6.61945887E-10
   12.3599997      -8.58572047E-10
   12.4799995      -1.00437425E-09
   12.6000004      -1.06918174E-09
   12.7200003      -1.02463604E-09
   12.8400002      -8.47700243E-10
   12.9600000      -5.24371546E-10
   13.0799999      -5.32710820E-11
   13.1999998       5.51258483E-10
   13.3199997       1.25694477E-09
   13.4399996       2.01265959E-09
   13.5600004       2.74913159E-09
   13.6800003       3.38159234E-09
   13.8000002       3.81454113E-09
   13.9200001       3.94868227E-09
   14.0400000       3.68991171E-09
   14.1599998       2.96002867E-09
   14.2799997       1.70861714E-09
   14.3999996      -7.47006623E-11
   14.5200005      -2.34868236E-09
   14.6400003      -5.01081532E-09
   14.7600002      -7.89103272E-09
   14.8800001      -1.07503091E-08
   15.0000000      -1.32856233E-08
   15.1199999      -1.51425663E-08
   15.2399998      -1.59365090E-08
   15.3599997      -1.52826551E-08
   15.4799995      -1.28344659E-08
   15.6000004      -8.32902991E-09
   15.7200003      -1.63676794E-09
   15.8400002       7.18828685E-09
   15.9600000       1.78625061E-08
   16.0799999       2.98367731E-08
   16.2000008       4.22770441E-08
   16.3199997       5.40677583E-08
   16.4400005       6.38439275E-08
   16.5599995       7.00563163E-08
   16.6800003       7.10720727E-08
   16.7999992       6.53101964E-08
   16.9200001       5.14076000E-08
   17.0400009       2.84075199E-08
   17.1599998      -4.04202982E-09
   17.2800007      -4.54961366E-08
   17.3999996      -9.45467562E-08
   17.5200005      -1.48704018E-07
   17.6399994      -2.04347316E-07
   17.7600002      -2.56767066E-07
   17.8799992      -3.00314355E-07
   18.0000000      -3.28670382E-07
   18.1200008      -3.35239008E-07
   18.2399998      -3.13657125E-07
   18.3600006      -2.58406004E-07
   18.4799995      -1.65495749E-07
   18.6000004      -3.31844419E-08
   18.7199993       1.37316192E-07
   18.8400002       3.41203673E-07
   18.9599991       5.69574809E-07
   19.0799999       8.09101437E-07
   19.2000008       1.04194589E-06
   19.3199997       1.24595942E-06
   19.4400005       1.39519545E-06
   19.5599995       1.46074808E-06
   19.6800003       1.41190969E-06
   19.7999992       1.21761457E-06
   19.9200001       8.48117850E-07
   20.0400009       2.76831145E-07
   20.1599998      -5.17773799E-07
   20.2800007      -1.55030239E-06
   20.3999996      -2.82672863E-06
   20.5200005      -4.34295589E-06
   20.6399994      -6.08375603E-06
   20.7600002      -8.02217346E-06
   20.8799992      -1.01194810E-05
   21.0000000      -1.23257196E-05
   21.1200008      -1.45808426E-05
   21.2399998      -1.68164461E-05
   21.3600006      -1.89580223E-05
   21.4799995      -2.09276805E-05
   21.6000004      -2.26471566E-05
   21.7199993      -2.40410664E-05
   21.8400002      -2.50401372E-05
   21.9599991      -2.55843643E-05
   22.0799999      -2.56258663E-05
   22.2000008      -2.51313068E-05
   22.3199997      -2.40837653E-05
   22.4400005      -2.24839496E-05
   22.5599995      -2.03506970E-05
   22.6800003      -1.77206821E-05
   22.7999992      -1.46474404E-05
   22.9200001      -1.11996314E-05
   23.0400009      -7.45871603E-06
   23.1599998      -3.51611584E-06
   23.2800007       5.30007924E-07
   23.3999996       4.57820670E-06
   23.5200005       8.52727044E-06
   23.6399994       1.22796819E-05
   23.7600002       1.57448521E-05
   23.8799992       1.88420108E-05
   24.0000000       2.15026575E-05
   24.1200008       2.36724736E-05
   24.2399998       2.53126800E-05
   24.3600006       2.64007758E-05
   24.4799995       2.69307147E-05
   24.6000004       2.69124939E-05
   24.7199993       2.63712427E-05
   24.8400002       2.53458729E-05
   24.9599991       2.38873326E-05
   25.0799999       2.20565871E-05
   25.2000008       1.99223796E-05
   25.3199997       1.75588666E-05
   25.4400005       1.50431933E-05
   25.5599995       1.24531025E-05
   25.6800003       9.86460327E-06
   25.7999992       7.34979585E-06
   25.9200001       4.97488372E-06
   26.0400009       2.79840742E-06
   26.1599998       8.69752796E-07
   26.2800007      -7.72039471E-07
   26.3999996      -2.09913901E-06
   26.5200005      -3.09544089E-06
   26.6399994      -3.75671425E-06
   26.7600002      -4.09038239E-06
   26.8799992      -4.11492556E-06
   27.0000000      -3.85892872E-06
   27.1200008      -3.35978734E-06
   27.2399998      -2.66211282E-06
   27.3600006      -1.81588325E-06
   27.4799995      -8.74397529E-07
   27.6000004       1.07890976E-07
   27.7199993       1.07758444E-06
   27.8400002       1.98450402E-06
   27.9599991       2.78371749E-06
   28.0799999       3.43733973E-06
   28.2000008       3.91602316E-06
   28.3199997       4.20007109E-06
   28.4400005       4.28010389E-06
   28.5599995       4.15725754E-06
   28.6800003       3.84288433E-06
   28.7999992       3.35777372E-06
   28.9200001       2.73092678E-06
   29.0400009       1.99793863E-06
   29.1599998       1.19907145E-06
   29.2800007       3.77117033E-07
   29.3999996      -4.24844814E-07
   29.5200005      -1.16567321E-06
   29.6399994      -1.80826112E-06
   29.7600002      -2.32139087E-06
   29.8799992      -2.68125063E-06
   30.0000000      -2.87253692E-06
   30.1200008      -2.88908745E-06
   30.2399998      -2.73401815E-06
   30.3600006      -2.41936414E-06
   30.4799995      -1.96525502E-06
   30.6000004      -1.39867529E-06
   30.7199993      -7.51893083E-07
   30.8400002      -6.06430461E-08
   30.9599991       6.37824542E-07
   31.0799999       1.30672322E-06
   31.2000008       1.91162758E-06
   31.3199997       2.42219016E-06
   31.4400005       2.81359121E-06
   31.5599995       3.06765219E-06
   31.6800003       3.17357126E-06
   31.7999992       3.12825091E-06
   31.9200001       2.93622406E-06
   32.0400009       2.60919614E-06
   32.1599998       2.16524882E-06
   32.2799988       1.62775643E-06
   32.4000015       1.02408762E-06
   32.5200005       3.84166128E-07
   32.6399994      -2.61033051E-07
   32.7599983      -8.80976984E-07
   32.8800011      -1.44699015E-06
   33.0000000      -1.93353139E-06
   33.1199989      -2.31928493E-06
   33.2400017      -2.58802947E-06
   33.3600006      -2.72926059E-06
   33.4799995      -2.73855198E-06
   33.5999985      -2.61765877E-06
   33.7200012      -2.37436143E-06
   33.8400002      -2.02207048E-06
   33.9599991      -1.57920726E-06
   34.0800018      -1.06838831E-06
   34.2000008      -5.15441002E-07
   34.3199997       5.17152223E-08
   34.4399986       6.04283628E-07
   34.5600014       1.11386021E-06
   34.6800003       1.55371220E-06
   34.7999992       1.90001663E-06
   34.9199982       2.13300518E-06
   35.0400009       2.23796360E-06
   35.1599998       2.20603397E-06
   35.2799988       2.03476952E-06
   35.4000015       1.72840578E-06
   35.5200005       1.29781506E-06
   35.6399994       7.60130320E-07
   35.7599983       1.38039681E-07
   35.8800011      -5.41225745E-07
   36.0000000      -1.24717383E-06
   36.1199989      -1.94754125E-06
   36.2400017      -2.60991828E-06
   36.3600006      -3.20342065E-06
   36.4799995      -3.70031194E-06
   36.5999985      -4.07748439E-06
   36.7200012      -4.31770150E-06
   36.8400002      -4.41052589E-06
   36.9599991      -4.35287029E-06
   37.0800018      -4.14913256E-06
   37.2000008      -3.81089967E-06
   37.3199997      -3.35623645E-06
   37.4399986      -2.80860058E-06
   37.5600014      -2.19545154E-06
   37.6800003      -1.54663928E-06
   37.7999992      -8.92680134E-07
   37.9199982      -2.63023907E-07
   38.0400009       3.15572009E-07
   38.1599998       8.20459718E-07
   38.2799988       1.23422103E-06
   38.4000015       1.54542329E-06
   38.5200005       1.74896923E-06
   38.6399994       1.84602811E-06
   38.7599983       1.84356622E-06
   38.8800011       1.75352045E-06
   39.0000000       1.59168349E-06
   39.1199989       1.37638995E-06
   39.2400017       1.12710279E-06
   39.3600006       8.63003208E-07
   39.4799995       6.01686793E-07
   39.5999985       3.58055217E-07
   39.7200012       1.43476370E-07
   39.8400002      -3.47356170E-08
   39.9599991      -1.73496119E-07
   40.0800018      -2.73782859E-07
   40.2000008      -3.40153747E-07
   40.3199997      -3.80000699E-07
   40.4399986      -4.02609032E-07
   40.5600014      -4.18105316E-07
   40.6800003      -4.36381725E-07
   40.7999992      -4.66085055E-07
   40.9199982      -5.13749455E-07
   41.0400009      -5.83140491E-07
   41.1599998      -6.74858484E-07
   41.2799988      -7.86226678E-07
   41.4000015      -9.11470863E-07
   41.5200005      -1.04216974E-06
   41.6399994      -1.16793740E-06
   41.7599983      -1.27728254E-06
   41.8800011      -1.35857010E-06
   42.0000000      -1.40101349E-06
   42.1199989      -1.39561166E-06
   42.2400017      -1.33595961E-06
   42.3600006      -1.21886524E-06
   42.4799995      -1.04472281E-06
   42.5999985      -8.17610669E-07
   42.7200012      -5.45105593E-07
   42.8400002      -2.37824352E-07
   42.9599991       9.12705147E-08
   43.0800018       4.27748972E-07
   43.2000008       7.56704878E-07
   43.3199997       1.06378297E-06
   43.4399986       1.33615822E-06
   43.5600014       1.56338842E-06
   43.6800003       1.73806995E-06
   43.7999992       1.85624469E-06
   43.9199982       1.91752360E-06
   44.0400009       1.92491916E-06
   44.1599998       1.88440379E-06
   44.2799988       1.80423228E-06
   44.4000015       1.69409304E-06
   44.5200005       1.56416138E-06
   44.6399994       1.42414081E-06
   44.7599983       1.28238105E-06
   44.8800011       1.14514830E-06
   45.0000000       1.01611738E-06
   45.1199989       8.96128086E-07
   45.2400017       7.83229723E-07
   45.3600006       6.73008856E-07
   45.4799995       5.59169962E-07
   45.5999985       4.34317371E-07
   45.7200012       2.90867774E-07
   45.8400002       1.22009794E-07
   45.9599991      -7.73743025E-08
   46.0800018      -3.09909808E-07
   46.2000008      -5.75126137E-07
   46.3199997      -8.69105122E-07
   46.4399986      -1.18441699E-06
   46.5600014      -1.51035454E-06
   46.6800003      -1.83345230E-06
   46.7999992      -2.13825479E-06
   46.9199982      -2.40827649E-06
   47.0400009      -2.62708477E-06
   47.1599998      -2.77942127E-06
   47.2799988      -2.85228452E-06
   47.4000015      -2.83588793E-06
   47.5200005      -2.72442890E-06
   47.6399994      -2.51661186E-06
   47.7599983      -2.21588812E-06
   47.8800011      -1.83039822E-06
   48.0000000      -1.37262089E-06
   48.1199989      -8.58756778E-07
   48.2400017      -3.07886751E-07
   48.3600006       2.59033754E-07
   48.4799995       8.20277194E-07
   48.5999985       1.35447192E-06
   48.7200012       1.84168277E-06
   48.8400002       2.26437919E-06
   48.9599991       2.60823299E-06
   49.0800018       2.86270665E-06
   49.2000008       3.02140256E-06
   49.3199997       3.08216431E-06
   49.4399986       3.04694345E-06
   49.5600014       2.92144568E-06
   49.6800003       2.71460362E-06
   49.7999992       2.43791214E-06
   49.9199982       2.10468761E-06
   50.0400009       1.72929526E-06
   50.1599998       1.32640412E-06
   50.2799988       9.10306369E-07
   50.4000015       4.94344135E-07
   50.5200005       9.04652921E-08
   50.6399994      -2.91077754E-07
   50.7599983      -6.41884412E-07
   50.8800011      -9.55429414E-07
   51.0000000      -1.22697145E-06
   51.1199989      -1.45337708E-06
   51.2400017      -1.63288951E-06
   51.3600006      -1.76487663E-06
   51.4799995      -1.84958685E-06
   51.5999985      -1.88794309E-06
   51.7200012      -1.88138802E-06
   51.8400002      -1.83179566E-06
   51.9599991      -1.74144782E-06
   52.0800018      -1.61306843E-06
   52.2000008      -1.44989770E-06
   52.3199997      -1.25578742E-06
   52.4399986      -1.03528737E-06
   52.5600014      -7.93701872E-07
   52.6800003      -5.37090159E-07
   52.7999992      -2.72196871E-07
   52.9199982      -6.30331343E-09
   53.0400009       2.52997012E-07
   53.1599998       4.98086592E-07
   53.2799988       7.21654942E-07
   53.4000015       9.17042883E-07
   53.5200005       1.07856908E-06
   53.6399994       1.20180732E-06
   53.7599983       1.28378508E-06
   53.8800011       1.32308799E-06
   54.0000000       1.31985632E-06
   54.1199989       1.27568080E-06
   54.2400017       1.19341109E-06
   54.3600006       1.07690266E-06
   54.4799995       9.30736178E-07
   54.5999985       7.59942168E-07
   54.7200012       5.69766144E-07
   54.8400002       3.65497357E-07
   54.9599991       1.52377396E-07
   55.0800018      -6.44126317E-08
   55.2000008      -2.79698526E-07
   55.3199997      -4.88219769E-07
   55.4399986      -6.84531472E-07
   55.5600014      -8.62941079E-07
   55.6800003      -1.01751709E-06
   55.7999992      -1.14219972E-06
   55.9199982      -1.23103007E-06
   56.0400009      -1.27849682E-06
   56.1599998      -1.27998112E-06
   56.2799988      -1.23226209E-06
   56.4000015      -1.13402996E-06
   56.5200005      -9.86343480E-07
   56.6399994      -7.92969047E-07
   56.7599983      -5.60539263E-07
   56.8800011      -2.98489397E-07
   57.0000000      -1.87432398E-08
   57.1199989       2.64849177E-07
   57.2400017       5.37297410E-07
   57.3600006       7.83426970E-07
   57.4799995       9.88933266E-07
   57.5999985       1.14144507E-06
   57.7200012       1.23150278E-06
   57.8400002       1.25336237E-06
   57.9599991       1.20554455E-06
   58.0800018       1.09107350E-06
   58.2000008       9.17374393E-07
   58.3199997       6.95831034E-07
   58.4399986       4.41034302E-07
   58.5600014       1.69781131E-07
   58.6800003      -1.00094745E-07
   58.7999992      -3.50965735E-07
   58.9199982      -5.66626738E-07
   59.0400009      -7.33390209E-07
   59.1599998      -8.40979453E-07
   59.2799988      -8.83157725E-07
   59.4000015      -8.58059821E-07
   59.5200005      -7.68213624E-07
   59.6399994      -6.20270953E-07
   59.7599983      -4.24482835E-07
   59.8800011      -1.93975822E-07
   60.0000000       5.61077620E-08
   60.1199989       3.09537967E-07
   60.2400017       5.49929950E-07
   60.3600006       7.61626723E-07
   60.4799995       9.30487658E-07
   60.5999985       1.04455466E-06
   60.7200012       1.09457881E-06
   60.8400002       1.07440064E-06
   60.9599991       9.81190624E-07
   61.0800018       8.15553619E-07
   61.2000008       5.81508345E-07
   61.3199997       2.86348637E-07
   61.4399986      -5.96067338E-08
   61.5600014      -4.43374091E-07
   61.6800003      -8.49772050E-07
   61.7999992      -1.26199302E-06
   61.9199982      -1.66227198E-06
   62.0400009      -2.03263926E-06
   62.1599998      -2.35573293E-06
   62.2799988      -2.61563946E-06
   62.4000015      -2.79871961E-06
   62.5200005      -2.89436775E-06
   62.6399994      -2.89565241E-06
   62.7599983      -2.79978462E-06
   62.8800011      -2.60836805E-06
   63.0000000      -2.32739808E-06
   63.1199989      -1.96699671E-06
   63.2400017      -1.54088593E-06
   63.3600006      -1.06563323E-06
   63.4799995      -5.59714124E-07
   63.5999985      -4.24631459E-08
   63.7200012       4.67008050E-07
   63.8400002       9.50842718E-07
   63.9599991       1.39334156E-06
   64.0800018       1.78166772E-06
   64.1999969       2.10630856E-06
   64.3199997       2.36126471E-06
   64.4400024       2.54397878E-06
   64.5599976       2.65501853E-06
   64.6800003       2.69757743E-06
   64.8000031       2.67684777E-06
   64.9199982       2.59934995E-06
   65.0400009       2.47228104E-06
   65.1600037       2.30295700E-06
   65.2799988       2.09838913E-06
   65.4000015       1.86502621E-06
   65.5199966       1.60866421E-06
   65.6399994       1.33450726E-06
   65.7600021       1.04734295E-06
   65.8799973       7.51781386E-07
   66.0000000       4.52505617E-07
   66.1200027       1.54477078E-07
   66.2399979      -1.36944806E-07
   66.3600006      -4.15999381E-07
   66.4800034      -6.76648426E-07
   66.5999985      -9.12816233E-07
   66.7200012      -1.11872089E-06
   66.8399963      -1.28925228E-06
   66.9599991      -1.42034958E-06
   67.0800018      -1.50932328E-06
   67.1999969      -1.55507598E-06
   67.3199997      -1.55818725E-06
   67.4400024      -1.52084169E-06
   67.5599976      -1.44660396E-06
   67.6800003      -1.34005938E-06
   67.8000031      -1.20636093E-06
   67.9199982      -1.05073605E-06
   68.0400009      -8.78012713E-07
   68.1600037      -6.92230799E-07
   68.2799988      -4.96389987E-07
   68.4000015      -2.92377280E-07
   68.5199966      -8.10927503E-08
   68.6399994       1.37230714E-07
   68.7600021       3.62545251E-07
   68.8799973       5.94398614E-07
   69.0000000       8.31311979E-07
   69.1200027       1.07021015E-06
   69.2399979       1.30599290E-06
   69.3600006       1.53132373E-06
   69.4800034       1.73669741E-06
   69.5999985       1.91081472E-06
   69.7200012       2.04126400E-06
   69.8399963       2.11546853E-06
   69.9599991       2.12182772E-06
   70.0800018       2.05094648E-06
   70.1999969       1.89683453E-06
   70.3199997       1.65794279E-06
   70.4400024       1.33791764E-06
   70.5599976       9.45967997E-07
   70.6800003       4.96777318E-07
   70.8000031       9.93419924E-09
   70.9199982      -4.91100423E-07
   71.0400009      -9.80423465E-07
   71.1600037      -1.43140994E-06
   71.2799988      -1.81858616E-06
   71.4000015      -2.11949964E-06
   71.5199966      -2.31642662E-06
   71.6399994      -2.39776773E-06
   71.7600021      -2.35901302E-06
   71.8799973      -2.20318771E-06
   72.0000000      -1.94073800E-06
   72.1200027      -1.58886041E-06
   72.2399979      -1.17032744E-06
   72.3600006      -7.11898281E-07
   72.4800034      -2.42442297E-07
   72.5999985       2.09083851E-07
   72.7200012       6.15647764E-07