  -30.0000000       0.00000000    
  -29.8799992       0.00000000    
  -29.7600002       0.00000000    
  -29.6399994       0.00000000    
  -29.5200005       0.00000000    
  -29.3999996       0.00000000    
  -29.2800007       0.00000000    
  -29.1599998       0.00000000    
  -29.0400009      -2.52831276E-33
  -28.9200001      -6.39731356E-32
  -28.7999992      -5.44228776E-31
  -28.6800003      -2.41772217E-30
  -28.5599995      -5.56852137E-30
  -28.4400005       7.04068736E-31
  -28.3199997       5.96172457E-29
  -28.2000008       2.64371946E-28
  -28.0799999       7.04153258E-28
  -27.9599991       1.23319211E-27
  -27.8400002       1.04668987E-27
  -27.7199993      -1.61208367E-27
  -27.6000004      -8.78113660E-27
  -27.4799995      -2.01676605E-26
  -27.3600006      -2.87310661E-26
  -27.2399998      -1.74864440E-26
  -27.1200008       3.59512788E-26
  -27.0000000       1.40166630E-25
  -26.8799992       2.56918635E-25
  -26.7600002       2.73126498E-25
  -26.6399994       1.80737047E-26
  -26.5200005      -6.28511565E-25
  -26.3999996      -1.52854432E-24
  -26.2800007      -2.06258550E-24
  -26.1599998      -1.10345804E-24
  -26.0400009       2.52471620E-24
  -25.9200001       8.91756372E-24
  -25.7999992       1.55076612E-23
  -25.6800003       1.59198726E-23
  -25.5599995       8.26753247E-25
  -25.4400005      -3.75422660E-23
  -25.3199997      -9.67481418E-23
  -25.2000008      -1.53616575E-22
  -25.0799999      -1.57898437E-22
  -24.9599991      -3.91803009E-23
  -24.8400002       2.64386063E-22
  -24.7199993       7.53372413E-22
  -24.6000004       1.30098698E-21
  -24.4799995       1.60071818E-21
  -24.3600006       1.16979101E-21
  -24.2399998      -5.42249759E-22
  -24.1200008      -3.89718875E-21
  -24.0000000      -8.65024772E-21
  -23.8799992      -1.34232963E-20
  -23.7600002      -1.52478952E-20
  -23.6399994      -9.55223325E-21
  -23.5200005       8.81909031E-21
  -23.3999996       4.28996448E-20
  -23.2800007       8.89534392E-20
  -23.1599998       1.30820385E-19
  -23.0400009       1.36237758E-19
  -22.9200001       6.03680159E-20
  -22.7999992      -1.37466303E-19
  -22.6800003      -4.60973435E-19
  -22.5599995      -8.34115747E-19
  -22.4400005      -1.06855636E-18
  -22.3199997      -8.75134547E-19
  -22.2000008       4.45142885E-20
  -22.0799999       1.81175860E-18
  -21.9599991       4.12800804E-18
  -21.8400002       6.08574561E-18
  -21.7199993       6.20463752E-18
  -21.6000004       2.85934583E-18
  -21.4799995      -4.85305542E-18
  -21.3600006      -1.60014069E-17
  -21.2399998      -2.69623673E-17
  -21.1200008      -3.15235256E-17
  -21.0000000      -2.25731600E-17
  -20.8799992       4.52074677E-18
  -20.7600002       4.76729664E-17
  -20.6399994       9.48545611E-17
  -20.5200005       1.24332247E-16
  -20.3999996       1.10338753E-16
  -20.2800007       3.42344777E-17
  -20.1599998      -1.01795089E-16
  -20.0400009      -2.64470368E-16
  -19.9200001      -3.89832435E-16
  -19.7999992      -3.99569370E-16
  -19.6800003      -2.32611817E-16
  -19.5599995       1.16973212E-16
  -19.4400005       5.72160962E-16
  -19.3199997       9.73653785E-16
  -19.2000008       1.12081327E-15
  -19.0799999       8.49018816E-16
  -18.9599991       1.19794189E-16
  -18.8400002      -9.15373895E-16
  -18.7199993      -1.91791786E-15
  -18.6000004      -2.45355714E-15
  -18.4799995      -2.15793311E-15
  -18.3600006      -9.21321760E-16
  -18.2399998       9.89454655E-16
  -18.1200008       2.94819431E-15
  -18.0000000       4.15675956E-15
  -17.8799992       3.96036988E-15
  -17.7600002       2.17485704E-15
  -17.6399994      -7.26438696E-16
  -17.5200005      -3.68946291E-15
  -17.3999996      -5.44596318E-15
  -17.2800007      -5.06098163E-15
  -17.1599998      -2.43816973E-15
  -17.0400009       1.47216126E-15
  -16.9200001       4.93060462E-15
  -16.7999992       6.10954404E-15
  -16.6800003       3.99075296E-15
  -16.5599995      -9.41223964E-16
  -16.4400005      -6.60217163E-15
  -16.3199997      -9.99534792E-15
  -16.2000008      -8.52558905E-15
  -16.0799999      -1.43671706E-15
  -15.9600000       9.31060394E-15
  -15.8400002       1.92903351E-14
  -15.7200003       2.31459766E-14
  -15.6000004       1.69782215E-14
  -15.4799995       6.43277531E-16
  -15.3599997      -2.11591541E-14
  -15.2399998      -3.98192459E-14
  -15.1199999      -4.58239065E-14
  -15.0000000      -3.29377266E-14
  -14.8800001      -1.91168560E-15
  -14.7600002       3.80850035E-14
  -14.6400003       7.14897773E-14
  -14.5200005       8.17188521E-14
  -14.3999996       5.82616976E-14
  -14.2799997       2.75641695E-15
  -14.1599998      -6.88406716E-14
  -14.0400000      -1.29792282E-13
  -13.9200001      -1.51533218E-13
  -13.8000002      -1.15354490E-13
  -13.6800003      -2.24102285E-14
  -13.5600004       1.02541897E-13
  -13.4399996       2.16510986E-13
  -13.3199997       2.72298379E-13
  -13.1999998       2.36970762E-13
  -13.0799999       1.07883917E-13
  -12.9600000      -8.09153024E-14
  -12.8400002      -2.66360203E-13
  -12.7200003      -3.77432514E-13
  -12.6000004      -3.63144112E-13
  -12.4799995      -2.16819875E-13
  -12.3599997       1.43056614E-14
  -12.2399998       2.40911810E-13
  -12.1199999       3.63646911E-13
  -12.0000000       3.15330065E-13
  -11.8800001       9.69638256E-14
  -11.7600002      -2.09231111E-13
  -11.6400003      -4.59946046E-13
  -11.5200005      -5.02111536E-13
  -11.3999996      -2.39857911E-13
  -11.2799997       3.08064853E-13
  -11.1599998       9.86515231E-13
  -11.0400000       1.53431293E-12
  -10.9200001       1.66513700E-12
  -10.8000002       1.17681830E-12
  -10.6800003       5.15986891E-14
  -10.5600004      -1.49316909E-12
  -10.4399996      -3.03229121E-12
  -10.3199997      -4.04154531E-12
  -10.1999998      -4.06178867E-12
  -10.0799999      -2.86794156E-12
  -9.96000004      -5.83687775E-13
  -9.84000015       2.30552253E-12
  -9.72000027       5.05831965E-12
  -9.60000038       6.87958501E-12
  -9.47999954       7.16074899E-12
  -9.35999966       5.68152860E-12
  -9.23999977       2.70332368E-12
  -9.11999989      -1.08370723E-12
  -9.00000000      -4.75046434E-12
  -8.88000011      -7.39903971E-12
  -8.76000023      -8.42648087E-12
  -8.64000034      -7.69422893E-12
  -8.52000046      -5.54509693E-12
  -8.39999962      -2.66151337E-12
  -8.27999973       1.84930833E-13
  -8.15999985       2.40212906E-12
  -8.03999996       3.76497358E-12
  -7.92000008       4.45019238E-12
  -7.80000019       4.90294654E-12
  -7.67999983       5.58441271E-12
  -7.55999994       6.69910958E-12
  -7.44000006       8.01530370E-12
  -7.32000017       8.86359215E-12
  -7.19999981       8.33562906E-12
  -7.07999992       5.62852412E-12
  -6.96000004       4.18662067E-13
  -6.84000015      -6.87414925E-12
  -6.71999979      -1.50440424E-11
  -6.59999990      -2.23193963E-11
  -6.48000002      -2.67971444E-11
  -6.36000013      -2.69636726E-11
  -6.23999977      -2.21376199E-11
  -6.11999989      -1.26890052E-11
  -6.00000000       3.95138837E-14
  -5.88000011       1.40833898E-11
  -5.76000023       2.73592572E-11
  -5.63999987       3.81469474E-11
  -5.51999998       4.53842380E-11
  -5.40000010       4.86756711E-11
  -5.28000021       4.80226067E-11
  -5.15999985       4.33880327E-11
  -5.03999996       3.42781671E-11
  -4.92000008       1.95260492E-11
  -4.80000019      -2.60443772E-12
  -4.67999983      -3.39912543E-11
  -4.55999994      -7.60256441E-11
  -4.44000006      -1.28993177E-10
  -4.32000017      -1.91692759E-10
  -4.19999981      -2.61457994E-10
  -4.07999992      -3.34617556E-10
  -3.96000004      -4.07283235E-10
  -3.83999991      -4.76235051E-10
  -3.72000003      -5.39631617E-10
  -3.59999990      -5.97319694E-10
  -3.48000002      -6.50645704E-10
  -3.35999990      -7.01830927E-10
  -3.24000001      -7.53117624E-10
  -3.11999989      -8.05963851E-10
  -3.00000000      -8.60551574E-10
  -2.88000011      -9.15764131E-10
  -2.75999999      -9.69644032E-10
  -2.64000010      -1.02018760E-09
  -2.51999998      -1.06623399E-09
  -2.40000010      -1.10818354E-09
  -2.27999997      -1.14833110E-09
  -2.16000009      -1.19071630E-09
  -2.03999996      -1.24052413E-09
  -1.91999996      -1.30318456E-09
  -1.79999995      -1.38339784E-09
  -1.67999995      -1.48431756E-09
  -1.55999994      -1.60708080E-09
  -1.44000006      -1.75078152E-09
  -1.32000005      -1.91286786E-09
  -1.20000005      -2.08983941E-09
  -1.08000004      -2.27805130E-09
 -0.959999979      -2.47442933E-09
 -0.839999974      -2.67694089E-09
 -0.720000029      -2.88478597E-09
 -0.600000024      -3.09836223E-09
 -0.479999989      -3.31914252E-09
 -0.360000014      -3.54959373E-09
 -0.239999995      -3.79318532E-09
 -0.119999997      -4.05441147E-09
  -1.11022302E-15  -4.33864900E-09
  0.119999997      -4.65165417E-09
  0.239999995      -4.99861486E-09
  0.360000014      -5.38289058E-09
  0.479999989      -5.80482817E-09
  0.600000024      -6.26117203E-09
  0.720000029      -6.74554856E-09
  0.839999974      -7.25021065E-09
  0.959999979      -7.76877584E-09
   1.08000004      -8.29923241E-09
   1.20000005      -8.84619578E-09
   1.32000005      -9.42147071E-09
   1.44000006      -1.00424229E-08
   1.55999994      -1.07283462E-08
   1.67999995      -1.14957981E-08
   1.79999995      -1.23542945E-08
   1.91999996      -1.33038522E-08
   2.03999996      -1.43352903E-08
   2.16000009      -1.54334003E-08
   2.27999997      -1.65820548E-08
   2.40000010      -1.77697128E-08
   2.51999998      -1.89935516E-08
   2.64000010      -2.02609076E-08
   2.75999999      -2.15876614E-08
   2.88000011      -2.29941648E-08
   3.00000000      -2.45001885E-08
   3.11999989      -2.61205848E-08
   3.24000001      -2.78630594E-08
   3.35999990      -2.97285556E-08
   3.48000002      -3.17138209E-08
   3.59999990      -3.38149135E-08
   3.72000003      -3.60301549E-08
   3.83999991      -3.83614704E-08
   3.96000004      -4.08137133E-08
   4.07999992      -4.33926530E-08
   4.19999981      -4.61028264E-08
   4.32000017      -4.89465428E-08
   4.44000006      -5.19248680E-08
   4.55999994      -5.50404700E-08
   4.67999983      -5.83011719E-08
   4.80000019      -6.17227585E-08
   4.92000008      -6.53294592E-08
   5.03999996      -6.91514757E-08
   5.15999985      -7.32199368E-08
   5.28000021      -7.75608697E-08
   5.40000010      -8.21901551E-08
   5.51999998      -8.71113457E-08
   5.63999987      -9.23172507E-08
   5.76000023      -9.77948673E-08
   5.88000011      -1.03532116E-07
   6.00000000      -1.09524123E-07
   6.11999989      -1.15777148E-07
   6.23999977      -1.22308975E-07
   6.36000013      -1.29145988E-07
   6.48000002      -1.36318192E-07
   6.59999990      -1.43853981E-07
   6.71999979      -1.51776803E-07
   6.84000015      -1.60104079E-07
   6.96000004      -1.68848885E-07
   7.07999992      -1.78023129E-07
   7.19999981      -1.87640964E-07
   7.32000017      -1.97720865E-07
   7.44000006      -2.08285797E-07
   7.55999994      -2.19361553E-07
   7.67999983      -2.30973981E-07
   7.80000019      -2.43146218E-07
   7.92000008      -2.55897220E-07
   8.03999996      -2.69241781E-07
   8.15999985      -2.83192321E-07
   8.27999973      -2.97761602E-07
   8.39999962      -3.12965341E-07
   8.52000046      -3.28824285E-07
   8.64000034      -3.45364441E-07
   8.76000023      -3.62616390E-07
   8.88000011      -3.80613415E-07
   9.00000000      -3.99389705E-07
   9.11999989      -4.18978829E-07
   9.23999977      -4.39413213E-07
   9.35999966      -4.60724806E-07
   9.47999954      -4.82945438E-07
   9.60000038      -5.06107654E-07
   9.72000027      -5.30244790E-07
   9.84000015      -5.55389988E-07
   9.96000004      -5.81575136E-07
   10.0799999      -6.08830419E-07
   10.1999998      -6.37183859E-07
   10.3199997      -6.66662288E-07
   10.4399996      -6.97293501E-07
   10.5600004      -7.29108478E-07
   10.6800003      -7.62142804E-07
   10.8000002      -7.96437917E-07
   10.9200001      -8.32040712E-07
   11.0400000      -8.69002065E-07
   11.1599998      -9.07374840E-07
   11.2799997      -9.47212584E-07
   11.3999996      -9.88567876E-07
   11.5200005      -1.03149193E-06
   11.6400003      -1.07603455E-06
   11.7600002      -1.12224393E-06
   11.8800001      -1.17016793E-06
   12.0000000      -1.21985454E-06
   12.1199999      -1.27135263E-06
   12.2399998      -1.32471325E-06
   12.3599997      -1.37999098E-06
   12.4799995      -1.43724378E-06
   12.6000004      -1.49653260E-06
   12.7200003      -1.55791827E-06
   12.8400002      -1.62145932E-06
   12.9600000      -1.68720965E-06
   13.0799999      -1.75521654E-06
   13.1999998      -1.82552310E-06
   13.3199997      -1.89817138E-06
   13.4399996      -1.97320765E-06
   13.5600004      -2.05068704E-06
   13.6800003      -2.13067847E-06
   13.8000002      -2.21326422E-06
   13.9200001      -2.29853799E-06
   14.0400000      -2.38659936E-06
   14.1599998      -2.47754838E-06
   14.2799997      -2.57147894E-06
   14.3999996      -2.66847496E-06
   14.5200005      -2.76860897E-06
   14.6400003      -2.87194371E-06
   14.7600002      -2.97853626E-06
   14.8800001      -3.08844437E-06
   15.0000000      -3.20173217E-06
   15.1199999      -3.31847605E-06
   15.2399998      -3.43876877E-06
   15.3599997      -3.56271903E-06
   15.4799995      -3.69045028E-06
   15.6000004      -3.82209282E-06
   15.7200003      -3.95777761E-06
   15.8400002      -4.09762924E-06
   15.9600000      -4.24175869E-06
   16.0799999      -4.39026917E-06
   16.2000008      -4.54325345E-06
   16.3199997      -4.70080522E-06
   16.4400005      -4.86302588E-06
   16.5599995      -5.03003275E-06
   16.6800003      -5.20196272E-06
   16.7999992      -5.37897222E-06
   16.9200001      -5.56123405E-06
   17.0400009      -5.74892920E-06
   17.1599998      -5.94224275E-06
   17.2800007      -6.14135251E-06
   17.3999996      -6.34642811E-06
   17.5200005      -6.55762824E-06
   17.6399994      -6.77509843E-06
   17.7600002      -6.99897419E-06
   17.8799992      -7.22939194E-06
   18.0000000      -7.46648357E-06
   18.1200008      -7.71039231E-06
   18.2399998      -7.96126915E-06
   18.3600006      -8.21928370E-06
   18.4799995      -8.48461605E-06
   18.6000004      -8.75746082E-06
   18.7199993      -9.03801902E-06
   18.8400002      -9.32650164E-06
   18.9599991      -9.62313061E-06
   19.0799999      -9.92813420E-06
   19.2000008      -1.02417553E-05
   19.3199997      -1.05642430E-05
   19.4400005      -1.08958520E-05
   19.5599995      -1.12368380E-05
   19.6800003      -1.15874473E-05
   19.7999992      -1.19479155E-05
   19.9200001      -1.23184600E-05
   20.0400009      -1.26992909E-05
   20.1599998      -1.30906210E-05
   20.2800007      -1.34926722E-05
   20.3999996      -1.39056920E-05
   20.5200005      -1.43299567E-05
   20.6399994      -1.47657656E-05
   20.7600002      -1.52134298E-05
   20.8799992      -1.56732658E-05
   21.0000000      -1.61455755E-05
   21.1200008      -1.66306472E-05
   21.2399998      -1.71287556E-05
   21.3600006      -1.76401754E-05
   21.4799995      -1.81651922E-05
   21.6000004      -1.87041114E-05
   21.7199993      -1.92572697E-05
   21.8400002      -1.98250345E-05
   21.9599991      -2.04077933E-05
   22.0799999      -2.10059443E-05
   22.2000008      -2.16198769E-05
   22.3199997      -2.22499730E-05
   22.4400005      -2.28965982E-05
   22.5599995      -2.35600965E-05
   22.6800003      -2.42408132E-05
   22.7999992      -2.49390796E-05
   22.9200001      -2.56552303E-05
   23.0400009      -2.63895927E-05
   23.1599998      -2.71424960E-05
   23.2800007      -2.79142587E-05
   23.3999996      -2.87051935E-05
   23.5200005      -2.95156024E-05
   23.6399994      -3.03457946E-05
   23.7600002      -3.11960794E-05
   23.8799992      -3.20667823E-05
   24.0000000      -3.29582290E-05
   24.1200008      -3.38707541E-05
   24.2399998      -3.48046851E-05
   24.3600006      -3.57603458E-05
   24.4799995      -3.67380380E-05
   24.6000004      -3.77380602E-05
   24.7199993      -3.87607033E-05
   24.8400002      -3.98062621E-05
   24.9599991      -4.08750275E-05
   25.0799999      -4.19672942E-05
   25.2000008      -4.30833461E-05
   25.3199997      -4.42234450E-05
   25.4400005      -4.53878274E-05
   25.5599995      -4.65766934E-05
   25.6800003      -4.77902213E-05
   25.7999992      -4.90285820E-05
   25.9200001      -5.02919465E-05
   26.0400009      -5.15804786E-05
   26.1599998      -5.28943565E-05
   26.2800007      -5.42337402E-05
   26.3999996      -5.55987572E-05
   26.5200005      -5.69894655E-05
   26.6399994      -5.84058762E-05
   26.7600002      -5.98479382E-05
   26.8799992      -6.13155498E-05
   27.0000000      -6.28085909E-05
   27.1200008      -6.43269304E-05
   27.2399998      -6.58704521E-05
   27.3600006      -6.74390030E-05
   27.4799995      -6.90324450E-05
   27.6000004      -7.06505525E-05
   27.7199993      -7.22930854E-05
   27.8400002      -7.39597090E-05
   27.9599991      -7.56500449E-05
   28.0799999      -7.73636639E-05
   28.2000008      -7.91001075E-05
   28.3199997      -8.08588520E-05
   28.4400005      -8.26393662E-05
   28.5599995      -8.44410752E-05
   28.6800003      -8.62633751E-05
   28.7999992      -8.81056112E-05
   28.9200001      -8.99671286E-05
   29.0400009      -9.18472142E-05
   29.1599998      -9.37450968E-05
   29.2800007      -9.56599542E-05
   29.3999996      -9.75909061E-05
   29.5200005      -9.95369264E-05
   29.6399994      -1.01496924E-04
   29.7600002      -1.03469683E-04
   29.8799992      -1.05453924E-04
   30.0000000      -1.07448279E-04
   30.1200008      -1.09451357E-04
   30.2399998      -1.11461712E-04
   30.3600006      -1.13477901E-04
   30.4799995      -1.15498427E-04
   30.6000004      -1.17521733E-04
   30.7199993      -1.19546254E-04
   30.8400002      -1.21570258E-04
   30.9599991      -1.23591977E-04
   31.0799999      -1.25609571E-04
   31.2000008      -1.27621039E-04
   31.3199997      -1.29624401E-04
   31.4400005      -1.31617548E-04
   31.5599995      -1.33598340E-04
   31.6800003      -1.35564551E-04
   31.7999992      -1.37513925E-04
   31.9200001      -1.39444106E-04
   32.0400009      -1.41352590E-04
   32.1599998      -1.43236888E-04
   32.2799988      -1.45094382E-04
   32.4000015      -1.46922379E-04
   32.5200005      -1.48718129E-04
   32.6399994      -1.50478867E-04
   32.7599983      -1.52201726E-04
   32.8800011      -1.53883753E-04
   33.0000000      -1.55521979E-04
   33.1199989      -1.57113347E-04
   33.2400017      -1.58654730E-04
   33.3600006      -1.60142998E-04
   33.4799995      -1.61574906E-04
   33.5999985      -1.62947224E-04
   33.7200012      -1.64256591E-04
   33.8400002      -1.65499659E-04
   33.9599991      -1.66672951E-04
   34.0800018      -1.67772960E-04
   34.2000008      -1.68796119E-04
   34.3199997      -1.69738807E-04
   34.4399986      -1.70597312E-04
   34.5600014      -1.71367952E-04
   34.6800003      -1.72047046E-04
   34.7999992      -1.72630840E-04
   34.9199982      -1.73115593E-04
   35.0400009      -1.73497552E-04
   35.1599998      -1.73772933E-04
   35.2799988      -1.73937937E-04
   35.4000015      -1.73988854E-04
   35.5200005      -1.73921886E-04
   35.6399994      -1.73733308E-04
   35.7599983      -1.73419423E-04
   35.8800011      -1.72976492E-04
   36.0000000      -1.72400774E-04
   36.1199989      -1.71688545E-04
   36.2400017      -1.70836094E-04
   36.3600006      -1.69839739E-04
   36.4799995      -1.68695798E-04
   36.5999985      -1.67400707E-04
   36.7200012      -1.65950900E-04
   36.8400002      -1.64342957E-04
   36.9599991      -1.62573488E-04
   37.0800018      -1.60639232E-04
   37.2000008      -1.58536903E-04
   37.3199997      -1.56263341E-04
   37.4399986      -1.53815417E-04
   37.5600014      -1.51190165E-04
   37.6800003      -1.48384657E-04
   37.7999992      -1.45396145E-04
   37.9199982      -1.42221994E-04
   38.0400009      -1.38859716E-04
   38.1599998      -1.35306924E-04
   38.2799988      -1.31561435E-04
   38.4000015      -1.27621155E-04
   38.5200005      -1.23484162E-04
   38.6399994      -1.19148681E-04
   38.7599983      -1.14613089E-04
   38.8800011      -1.09875902E-04
   39.0000000      -1.04935796E-04
   39.1199989      -9.97915849E-05
   39.2400017      -9.44422354E-05
   39.3600006      -8.88869254E-05
   39.4799995      -8.31250363E-05
   39.5999985      -7.71561681E-05
   39.7200012      -7.09802116E-05
   39.8400002      -6.45973196E-05
   39.9599991      -5.80078849E-05
   40.0800018      -5.12125516E-05
   40.2000008      -4.42121709E-05
   40.3199997      -3.70077978E-05
   40.4399986      -2.96006856E-05
   40.5600014      -2.19923186E-05
   40.6800003      -1.41844230E-05
   40.7999992      -6.17898695E-06
   40.9199982       2.02171850E-06
   41.0400009       1.04151495E-05
   41.1599998       1.89985058E-05
   41.2799988       2.77687468E-05
   41.4000015       3.67225875E-05
   41.5200005       4.58564864E-05
   41.6399994       5.51666199E-05
   41.7599983       6.46488625E-05
   41.8800011       7.42988341E-05
   42.0000000       8.41118308E-05
   42.1199989       9.40828977E-05
   42.2400017       1.04206825E-04
   42.3600006       1.14478156E-04
   42.4799995       1.24891187E-04
   42.5999985       1.35439928E-04
   42.7200012       1.46118167E-04
   42.8400002       1.56919297E-04
   42.9599991       1.67836508E-04
   43.0800018       1.78862698E-04
   43.2000008       1.89990533E-04
   43.3199997       2.01212461E-04
   43.4399986       2.12520768E-04
   43.5600014       2.23907511E-04
   43.6800003       2.35364481E-04
   43.7999992       2.46883254E-04
   43.9199982       2.58455140E-04
   44.0400009       2.70071119E-04
   44.1599998       2.81722052E-04
   44.2799988       2.93398654E-04
   44.4000015       3.05091409E-04
   44.5200005       3.16790683E-04
   44.6399994       3.28486698E-04
   44.7599983       3.40169645E-04
   44.8800011       3.51829454E-04
   45.0000000       3.63455882E-04
   45.1199989       3.75038595E-04
   45.2400017       3.86567088E-04
   45.3600006       3.98030825E-04
   45.4799995       4.09419270E-04
   45.5999985       4.20721772E-04
   45.7200012       4.31927678E-04
   45.8400002       4.43026365E-04
   45.9599991       4.54006979E-04
   46.0800018       4.64858691E-04
   46.2000008       4.75570705E-04
   46.3199997       4.86132049E-04
   46.4399986       4.96532011E-04
   46.5600014       5.06759854E-04
   46.6800003       5.16804925E-04
   46.7999992       5.26656746E-04
   46.9199982       5.36304782E-04
   47.0400009       5.45738731E-04
   47.1599998       5.54948347E-04
   47.2799988       5.63923561E-04
   47.4000015       5.72654360E-04
   47.5200005       5.81130967E-04
   47.6399994       5.89343952E-04
   47.7599983       5.97283943E-04
   47.8800011       6.04941917E-04
   48.0000000       6.12308970E-04
   48.1199989       6.19376602E-04
   48.2400017       6.26136432E-04
   48.3600006       6.32580312E-04
   48.4799995       6.38700381E-04
   48.5999985       6.44489017E-04
   48.7200012       6.49939175E-04
   48.8400002       6.55043987E-04
   48.9599991       6.59797050E-04
   49.0800018       6.64192252E-04
   49.2000008       6.68223889E-04
   49.3199997       6.71886606E-04
   49.4399986       6.75175572E-04
   49.5600014       6.78086246E-04
   49.6800003       6.80614437E-04
   49.7999992       6.82756596E-04
   49.9199982       6.84509461E-04
   50.0400009       6.85870356E-04
   50.1599998       6.86836895E-04
   50.2799988       6.87407388E-04
   50.4000015       6.87580265E-04
   50.5200005       6.87354885E-04
   50.6399994       6.86730840E-04
   50.7599983       6.85708073E-04
   50.8800011       6.84287108E-04
   51.0000000       6.82469108E-04
   51.1199989       6.80255354E-04
   51.2400017       6.77647884E-04
   51.3600006       6.74649316E-04
   51.4799995       6.71262620E-04
   51.5999985       6.67491287E-04
   51.7200012       6.63339335E-04
   51.8400002       6.58811186E-04
   51.9599991       6.53911848E-04
   52.0800018       6.48646557E-04
   52.2000008       6.43021252E-04
   52.3199997       6.37042220E-04
   52.4399986       6.30716386E-04
   52.5600014       6.24050968E-04
   52.6800003       6.17053651E-04
   52.7999992       6.09732524E-04
   52.9199982       6.02096203E-04
   53.0400009       5.94153360E-04
   53.1599998       5.85913309E-04
   53.2799988       5.77385654E-04
   53.4000015       5.68580290E-04
   53.5200005       5.59507520E-04
   53.6399994       5.50177821E-04
   53.7599983       5.40602137E-04
   53.8800011       5.30791702E-04
   54.0000000       5.20758040E-04
   54.1199989       5.10513084E-04
   54.2400017       5.00068767E-04
   54.3600006       4.89437487E-04
   54.4799995       4.78631788E-04
   54.5999985       4.67664184E-04
   54.7200012       4.56547568E-04
   54.8400002       4.45294776E-04
   54.9599991       4.33918845E-04
   55.0800018       4.22432931E-04
   55.2000008       4.10850131E-04
   55.3199997       3.99183715E-04
   55.4399986       3.87446984E-04
   55.5600014       3.75653239E-04
   55.6800003       3.63815867E-04
   55.7999992       3.51948140E-04
   55.9199982       3.40063270E-04
   56.0400009       3.28174356E-04
   56.1599998       3.16294376E-04
   56.2799988       3.04436224E-04
   56.4000015       2.92612618E-04
   56.5200005       2.80836219E-04
   56.6399994       2.69119482E-04
   56.7599983       2.57474720E-04
   56.8800011       2.45914154E-04
   57.0000000       2.34449690E-04
   57.1199989       2.23093055E-04
   57.2400017       2.11855586E-04
   57.3600006       2.00748327E-04
   57.4799995       1.89781960E-04
   57.5999985       1.78966875E-04
   57.7200012       1.68313069E-04
   57.8400002       1.57830262E-04
   57.9599991       1.47527797E-04
   58.0800018       1.37414638E-04
   58.2000008       1.27499341E-04
   58.3199997       1.17790165E-04
   58.4399986       1.08294909E-04
   58.5600014       9.90210538E-05
   58.6800003       8.99756851E-05
   58.7999992       8.11654900E-05
   58.9199982       7.25967184E-05
   59.0400009       6.42751475E-05
   59.1599998       5.62060268E-05
   59.2799988       4.83940930E-05
   59.4000015       4.08435881E-05
   59.5200005       3.35582845E-05
   59.6399994       2.65415292E-05
   59.7599983       1.97962672E-05
   59.8800011       1.33250496E-05
   60.0000000       7.13000691E-06
   60.1199989       1.21281869E-06
   60.2400017      -4.42530336E-06
   60.3600006      -9.78362641E-06
   60.4799995      -1.48618901E-05
   60.5999985      -1.96602850E-05
   60.7200012      -2.41794314E-05
   60.8400002      -2.84203707E-05
   60.9599991      -3.23845634E-05
   61.0800018      -3.60738777E-05
   61.2000008      -3.94906092E-05
   61.3199997      -4.26373990E-05
   61.4399986      -4.55172521E-05
   61.5600014      -4.81334864E-05
   61.6800003      -5.04897471E-05
   61.7999992      -5.25899814E-05
   61.9199982      -5.44385075E-05
   62.0400009      -5.60399967E-05
   62.1599998      -5.73994803E-05
   62.2799988      -5.85223279E-05
   62.4000015      -5.94142221E-05
   62.5200005      -6.00810417E-05
   62.6399994      -6.05288915E-05
   62.7599983      -6.07640322E-05
   62.8800011      -6.07928887E-05
   63.0000000      -6.06220892E-05
   63.1199989      -6.02584551E-05
   63.2400017      -5.97090220E-05
   63.3600006      -5.89810043E-05
   63.4799995      -5.80817577E-05
   63.5999985      -5.70187403E-05
   63.7200012      -5.57994681E-05
   63.8400002      -5.44315008E-05
   63.9599991      -5.29224635E-05
   64.0800018      -5.12800325E-05
   64.1999969      -4.95119821E-05
   64.3199997      -4.76261303E-05
   64.4400024      -4.56303533E-05
   64.5599976      -4.35325164E-05
   64.6800003      -4.13404450E-05
   64.8000031      -3.90618625E-05
   64.9199982      -3.67043904E-05
   65.0400009      -3.42755447E-05
   65.1600037      -3.17827398E-05
   65.2799988      -2.92333043E-05
   65.4000015      -2.66344978E-05
   65.5199966      -2.39935162E-05
   65.6399994      -2.13174790E-05
   65.7600021      -1.86134203E-05
   65.8799973      -1.58882467E-05
   66.0000000      -1.31487068E-05
   66.1200027      -1.04013616E-05
   66.2399979      -7.65255209E-06
   66.3600006      -4.90839921E-06
   66.4800034      -2.17480579E-06
   66.5999985       5.42514499E-07
   66.7200012       3.23802192E-06
   66.8399963       5.90635091E-06
   66.9599991       8.54232258E-06
   67.0800018       1.11409827E-05
   67.1999969       1.36976305E-05
   67.3199997       1.62078450E-05
   67.4400024       1.86674806E-05
   67.5599976       2.10726303E-05
   67.6800003       2.34195886E-05
   67.8000031       2.57048214E-05
   67.9199982       2.79249471E-05
   68.0400009       3.00767788E-05
   68.1600037       3.21573389E-05
   68.2799988       3.41639243E-05
   68.4000015       3.60941158E-05
   68.5199966       3.79457633E-05
   68.6399994       3.97169715E-05
   68.7600021       4.14060560E-05
   68.8799973       4.30115033E-05
   69.0000000       4.45319856E-05
   69.1200027       4.59663970E-05
   69.2399979       4.73138498E-05
   69.3600006       4.85737219E-05
   69.4800034       4.97456349E-05
   69.5999985       5.08294324E-05
   69.7200012       5.18251072E-05
   69.8399963       5.27327902E-05
   69.9599991       5.35527288E-05
   70.0800018       5.42853049E-05
   70.1999969       5.49310753E-05
   70.3199997       5.54908038E-05
   70.4400024       5.59654582E-05
   70.5599976       5.63561989E-05
   70.6800003       5.66643212E-05
   70.8000031       5.68912255E-05
   70.9199982       5.70383672E-05
   71.0400009       5.71072451E-05
   71.1600037       5.70994416E-05
   71.2799988       5.70166594E-05
   71.4000015       5.68607502E-05
   71.5199966       5.66337403E-05
   71.6399994       5.63378198E-05
   71.7600021       5.59752916E-05
   71.8799973       5.55485312E-05
   72.0000000       5.50599398E-05
   72.1200027       5.45119110E-05
   72.2399979       5.39068169E-05
   72.3600006       5.32470331E-05
   72.4800034       5.25349315E-05
   72.5999985       5.17728986E-05
   72.7200012       5.09633574E-05