  -30.0000000       0.00000000    
  -29.8799992       0.00000000    
  -29.7600002       0.00000000    
  -29.6399994       0.00000000    
  -29.5200005       0.00000000    
  -29.3999996       0.00000000    
  -29.2800007       0.00000000    
  -29.1599998       0.00000000    
  -29.0400009       0.00000000    
  -28.9200001       3.45021004E-37
  -28.7999992       4.43801743E-36
  -28.6800003       2.99961650E-35
  -28.5599995       1.43351169E-34
  -28.4400005       5.41946150E-34
  -28.3199997       1.67939223E-33
  -28.2000008       4.19152890E-33
  -28.0799999       7.71442853E-33
  -27.9599991       6.85865175E-33
  -27.8400002      -1.65751845E-32
  -27.7199993      -1.00222919E-31
  -27.6000004      -2.89721177E-31
  -27.4799995      -5.83367519E-31
  -27.3600006      -8.25734564E-31
  -27.2399998      -6.15165205E-31
  -27.1200008       6.01890488E-31
  -27.0000000       3.04536356E-30
  -26.8799992       5.76144501E-30
  -26.7600002       6.09144897E-30
  -26.6399994       8.41811848E-31
  -26.5200005      -9.55806907E-30
  -26.3999996      -1.48841990E-29
  -26.2800007       7.19520431E-30
  -26.1599998       7.85719954E-29
  -26.0400009       1.83708210E-28
  -25.9200001       2.15919521E-28
  -25.7999992      -4.83040925E-29
  -25.6800003      -8.60669974E-28
  -25.5599995      -2.21158657E-27
  -25.4400005      -3.36146227E-27
  -25.3199997      -2.47155996E-27
  -25.2000008       3.05640113E-27
  -25.0799999       1.47938598E-26
  -24.9599991       2.98335115E-26
  -24.8400002       3.69779813E-26
  -24.7199993       1.61562134E-26
  -24.6000004      -5.37054594E-26
  -24.4799995      -1.74689229E-25
  -24.3600006      -3.01396857E-25
  -24.2399998      -3.20564007E-25
  -24.1200008      -6.83491953E-26
  -24.0000000       5.84387419E-25
  -23.8799992       1.57454408E-24
  -23.7600002       2.47158720E-24
  -23.6399994       2.41440346E-24
  -23.5200005       3.33775653E-25
  -23.3999996      -4.42060849E-24
  -23.2800007      -1.11329936E-23
  -23.1599998      -1.68671983E-23
  -23.0400009      -1.64310166E-23
  -22.9200001      -3.93508432E-24
  -22.7999992       2.37450951E-23
  -22.6800003       6.23584322E-23
  -22.5599995       9.66552329E-23
  -22.4400005       1.00899828E-22
  -22.3199997       4.63889718E-23
  -22.2000008      -8.34110093E-23
  -22.0799999      -2.73638228E-22
  -21.9599991      -4.63005311E-22
  -21.8400002      -5.44287014E-22
  -21.7199993      -3.90331582E-22
  -21.6000004       9.17452743E-23
  -21.4799995       8.88383597E-22
  -21.3600006       1.81462646E-21
  -21.2399998       2.49288023E-21
  -21.1200008       2.41253688E-21
  -21.0000000       1.09179096E-21
  -20.8799992      -1.67145212E-21
  -20.7600002      -5.52178804E-21
  -20.6399994      -9.35519301E-21
  -20.5200005      -1.13599993E-20
  -20.3999996      -9.41957092E-21
  -20.2800007      -1.91670551E-21
  -20.1599998       1.11908700E-20
  -20.0400009       2.73751449E-20
  -19.9200001       4.11613409E-20
  -19.7999992       4.49382314E-20
  -19.6800003       3.12710396E-20
  -19.5599995      -3.54453759E-21
  -19.4400005      -5.57357269E-20
  -19.3199997      -1.11848429E-19
  -19.2000008      -1.49969370E-19
  -19.0799999      -1.45492462E-19
  -18.9599991      -8.08044823E-20
  -18.8400002       4.39897041E-20
  -18.7199993       2.03961129E-19
  -18.6000004       3.50649280E-19
  -18.4799995       4.24213761E-19
  -18.3600006       3.74408312E-19
  -18.2399998       1.83290881E-19
  -18.1200008      -1.20436334E-19
  -18.0000000      -4.64116825E-19
  -17.8799992      -7.52897105E-19
  -17.7600002      -9.02861435E-19
  -17.6399994      -8.69807711E-19
  -17.5200005      -6.57129184E-19
  -17.3999996      -2.95852235E-19
  -17.2800007       1.92361627E-19
  -17.1599998       8.21178021E-19
  -17.0400009       1.62180422E-18
  -16.9200001       2.56617544E-18
  -16.7999992       3.45464435E-18
  -16.6800003       3.83658859E-18
  -16.5599995       3.05598093E-18
  -16.4400005       4.88983942E-19
  -16.3199997      -4.04400412E-18
  -16.2000008      -9.83286882E-18
  -16.0799999      -1.50467379E-17
  -15.9600000      -1.69828303E-17
  -15.8400002      -1.29327397E-17
  -15.7200003      -1.53150453E-18
  -15.6000004       1.58770453E-17
  -15.4799995       3.45610155E-17
  -15.3599997       4.70763971E-17
  -15.2399998       4.55647146E-17
  -15.1199999       2.52246230E-17
  -15.0000000      -1.22698628E-17
  -14.8800001      -5.70949374E-17
  -14.7600002      -9.28204115E-17
  -14.6400003      -1.01602039E-16
  -14.5200005      -7.18142458E-17
  -14.3999996      -5.29697513E-18
  -14.2799997       7.93771449E-17
  -14.1599998       1.50447967E-16
  -14.0400000       1.73744086E-16
  -13.9200001       1.27714913E-16
  -13.8000002       1.67645489E-17
  -13.6800003      -1.24007543E-16
  -13.5600004      -2.37359516E-16
  -13.4399996      -2.65281825E-16
  -13.3199997      -1.76283796E-16
  -13.1999998       1.31536863E-17
  -13.0799999       2.35045449E-16
  -12.9600000       3.90755860E-16
  -12.8400002       3.92268528E-16
  -12.7200003       2.08543972E-16
  -12.6000004      -1.05146647E-16
  -12.4799995      -4.14515425E-16
  -12.3599997      -5.56596626E-16
  -12.2399998      -4.19309129E-16
  -12.1199999      -1.73148126E-17
  -12.0000000       4.76768429E-16
  -11.8800001       7.76398393E-16
  -11.7600002       6.02037773E-16
  -11.6400003      -1.58085915E-16
  -11.5200005      -1.31681415E-15
  -11.3999996      -2.36423646E-15
  -11.2799997      -2.60203354E-15
  -11.1599998      -1.42685061E-15
  -11.0400000       1.32105440E-15
  -10.9200001       5.08676954E-15
  -10.8000002       8.56203858E-15
  -10.6800003       9.97913232E-15
  -10.5600004       7.72150830E-15
  -10.4399996       1.09116648E-15
  -10.3199997      -9.04558089E-15
  -10.1999998      -2.00465644E-14
  -10.0799999      -2.79418958E-14
  -9.96000004      -2.85622085E-14
  -9.84000015      -1.90969016E-14
  -9.72000027       4.09670344E-16
  -9.60000038       2.62250159E-14
  -9.47999954       5.12577380E-14
  -9.35999966       6.67245596E-14
  -9.23999977       6.48600707E-14
  -9.11999989       4.19068094E-14
  -9.00000000       3.44225693E-16
  -8.88000011      -5.06248960E-14
  -8.76000023      -9.68641874E-14
  -8.64000034      -1.23160501E-13
  -8.52000046      -1.18132527E-13
  -8.39999962      -7.86068530E-14
  -8.27999973      -1.18115865E-14
  -8.15999985       6.57111897E-14
  -8.03999996       1.32516285E-13
  -7.92000008       1.68804017E-13
  -7.80000019       1.62978368E-13
  -7.67999983       1.15845200E-13
  -7.55999994       4.07304534E-14
  -7.44000006      -4.08052363E-14
  -7.32000017      -1.06304715E-13
  -7.19999981      -1.40156441E-13
  -7.07999992      -1.38741476E-13
  -6.96000004      -1.10838937E-13
  -6.84000015      -7.29728303E-14
  -6.71999979      -4.15132474E-14
  -6.59999990      -2.48995381E-14
  -6.48000002      -1.95780146E-14
  -6.36000013      -1.18927246E-14
  -6.23999977       1.43665343E-14
  -6.11999989       6.77909199E-14
  -6.00000000       1.41308216E-13
  -5.88000011       2.10806822E-13
  -5.76000023       2.42589125E-13
  -5.63999987       2.07996326E-13
  -5.51999998       9.97467557E-14
  -5.40000010      -5.75280451E-14
  -5.28000021      -2.09137246E-13
  -5.15999985      -2.87055400E-13
  -5.03999996      -2.37868346E-13
  -4.92000008      -5.23641020E-14
  -4.80000019       2.15952649E-13
  -4.67999983       4.54599357E-13
  -4.55999994       5.22694843E-13
  -4.44000006       3.02953978E-13
  -4.32000017      -2.40399877E-13
  -4.19999981      -1.01947725E-12
  -4.07999992      -1.81696075E-12
  -3.96000004      -2.32816305E-12
  -3.83999991      -2.24678544E-12
  -3.72000003      -1.37314801E-12
  -3.59999990       2.88898896E-13
  -3.48000002       2.48264495E-12
  -3.35999990       4.72279420E-12
  -3.24000001       6.39804702E-12
  -3.11999989       6.93040417E-12
  -3.00000000       5.94712734E-12
  -2.88000011       3.41138662E-12
  -2.75999999      -3.34492389E-13
  -2.64000010      -4.63422139E-12
  -2.51999998      -8.67710244E-12
  -2.40000010      -1.17044438E-11
  -2.27999997      -1.31960519E-11
  -2.16000009      -1.29734661E-11
  -2.03999996      -1.11838924E-11
  -1.91999996      -8.17179050E-12
  -1.79999995      -4.28932844E-12
  -1.67999995       2.74631853E-13
  -1.55999994       5.56712749E-12
  -1.44000006       1.17965802E-11
  -1.32000005       1.91167741E-11
  -1.20000005       2.73341124E-11
  -1.08000004       3.56453443E-11
 -0.959999979       4.25209382E-11
 -0.839999974       4.58163334E-11
 -0.720000029       4.31275154E-11
 -0.600000024       3.23294412E-11
 -0.479999989       1.21723647E-11
 -0.360000014      -1.72144035E-11
 -0.239999995      -5.40398559E-11
 -0.119999997      -9.48544021E-11
  -1.11022302E-15  -1.34820821E-10
  0.119999997      -1.68162997E-10
  0.239999995      -1.88668275E-10
  0.360000014      -1.90132854E-10
  0.479999989      -1.66696726E-10
  0.600000024      -1.13085527E-10
  0.720000029      -2.48309290E-11
  0.839999974       1.01449703E-10
  0.959999979       2.67680017E-10
   1.08000004       4.73906636E-10
   1.20000005       7.17972959E-10
   1.32000005       9.95463267E-10
   1.44000006       1.30007327E-09
   1.55999994       1.62445235E-09
   1.67999995       1.96140482E-09
   1.79999995       2.30519781E-09
   1.91999996       2.65262101E-09
   2.03999996       3.00348990E-09
   2.16000009       3.36041373E-09
   2.27999997       3.72788156E-09
   2.40000010       4.11094092E-09
   2.51999998       4.51389814E-09
   2.64000010       4.93946750E-09
   2.75999999       5.38865219E-09
   2.88000011       5.86139492E-09
   3.00000000       6.35774011E-09
   3.11999989       6.87907198E-09
   3.24000001       7.42895745E-09
   3.35999990       8.01324607E-09
   3.48000002       8.63937810E-09
   3.59999990       9.31513355E-09
   3.72000003       1.00472723E-08
   3.83999991       1.08405915E-08
   3.96000004       1.16977530E-08
   4.07999992       1.26199762E-08
   4.19999981       1.36083571E-08
   4.32000017       1.46653427E-08
   4.44000006       1.57958304E-08
   4.55999994       1.70074905E-08
   4.67999983       1.83101960E-08
   4.80000019       1.97147756E-08
   4.92000008       2.12315339E-08
   5.03999996       2.28690773E-08
   5.15999985       2.46338274E-08
   5.28000021       2.65303512E-08
   5.40000010       2.85623383E-08
   5.51999998       3.07337906E-08
   5.63999987       3.30499716E-08
   5.76000023       3.55177612E-08
   5.88000011       3.81453695E-08
   6.00000000       4.09415613E-08
   6.11999989       4.39149233E-08
   6.23999977       4.70735309E-08
   6.36000013       5.04253741E-08
   6.48000002       5.39795302E-08
   6.59999990       5.77477373E-08
   6.71999979       6.17459150E-08
   6.84000015       6.59950317E-08
   6.96000004       7.05209331E-08
   7.07999992       7.53531850E-08
   7.19999981       8.05231153E-08
   7.32000017       8.60617675E-08
   7.44000006       9.19983165E-08
   7.55999994       9.83593935E-08
   7.67999983       1.05169569E-07
   7.80000019       1.12452575E-07
   7.92000008       1.20232869E-07
   8.03999996       1.28536826E-07
   8.15999985       1.37393073E-07
   8.27999973       1.46831923E-07
   8.39999962       1.56883914E-07
   8.52000046       1.67578364E-07
   8.64000034       1.78942472E-07
   8.76000023       1.91001391E-07
   8.88000011       2.03779749E-07
   9.00000000       2.17303906E-07
   9.11999989       2.31604645E-07
   9.23999977       2.46719054E-07
   9.35999966       2.62691259E-07
   9.47999954       2.79571196E-07
   9.60000038       2.97412413E-07
   9.72000027       3.16268995E-07
   9.84000015       3.36193210E-07
   9.96000004       3.57234399E-07
   10.0799999       3.79439854E-07
   10.1999998       4.02857324E-07
   10.3199997       4.27538424E-07
   10.4399996       4.53541730E-07
   10.5600004       4.80934659E-07
   10.6800003       5.09792983E-07
   10.8000002       5.40198528E-07
   10.9200001       5.72235479E-07
   11.0400000       6.05986997E-07
   11.1599998       6.41532154E-07
   11.2799997       6.78946151E-07
   11.3999996       7.18301465E-07
   11.5200005       7.59671593E-07
   11.6400003       8.03134640E-07
   11.7600002       8.48776210E-07
   11.8800001       8.96690494E-07
   12.0000000       9.46979355E-07
   12.1199999       9.99749318E-07
   12.2399998       1.05510799E-06
   12.3599997       1.11316160E-06
   12.4799995       1.17401282E-06
   12.6000004       1.23776158E-06
   12.7200003       1.30450735E-06
   12.8400002       1.37435302E-06
   12.9600000       1.44740750E-06
   13.0799999       1.52378948E-06
   13.1999998       1.60362731E-06
   13.3199997       1.68705856E-06
   13.4399996       1.77422851E-06
   13.5600004       1.86528564E-06
   13.6800003       1.96038013E-06
   13.8000002       2.05965944E-06
   13.9200001       2.16326885E-06
   14.0400000       2.27134933E-06
   14.1599998       2.38403800E-06
   14.2799997       2.50146991E-06
   14.3999996       2.62377853E-06
   14.5200005       2.75109869E-06
   14.6400003       2.88356796E-06
   14.7600002       3.02132867E-06
   14.8800001       3.16453020E-06
   15.0000000       3.31332876E-06
   15.1199999       3.46788875E-06
   15.2399998       3.62838114E-06
   15.3599997       3.79498078E-06
   15.4799995       3.96786436E-06
   15.6000004       4.14720716E-06
   15.7200003       4.33317837E-06
   15.8400002       4.52594031E-06
   15.9600000       4.72564807E-06
   16.0799999       4.93245125E-06
   16.2000008       5.14649491E-06
   16.3199997       5.36792504E-06
   16.4400005       5.59689170E-06
   16.5599995       5.83355177E-06
   16.6800003       6.07806624E-06
   16.7999992       6.33060108E-06
   16.9200001       6.59132274E-06
   17.0400009       6.86039402E-06
   17.1599998       7.13796999E-06
   17.2800007       7.42419752E-06
   17.3999996       7.71921714E-06
   17.5200005       8.02316390E-06
   17.6399994       8.33617469E-06
   17.7600002       8.65838228E-06
   17.8799992       8.98992312E-06
   18.0000000       9.33092724E-06
   18.1200008       9.68151289E-06
   18.2399998       1.00417810E-05
   18.3600006       1.04118099E-05
   18.4799995       1.07916640E-05
   18.6000004       1.11813879E-05
   18.7199993       1.15810253E-05
   18.8400002       1.19906208E-05
   18.9599991       1.24102344E-05
   19.0799999       1.28399315E-05
   19.2000008       1.32797895E-05
   19.3199997       1.37298803E-05
   19.4400005       1.41902647E-05
   19.5599995       1.46609746E-05
   19.6800003       1.51420172E-05
   19.7999992       1.56333717E-05
   19.9200001       1.61349944E-05
   20.0400009       1.66468344E-05
   20.1599998       1.71688298E-05
   20.2800007       1.77009151E-05
   20.3999996       1.82430194E-05
   20.5200005       1.87950627E-05
   20.6399994       1.93569394E-05
   20.7600002       1.99285241E-05
   20.8799992       2.05096549E-05
   21.0000000       2.11001443E-05
   21.1200008       2.16997887E-05
   21.2399998       2.23083698E-05
   21.3600006       2.29256711E-05
   21.4799995       2.35514817E-05
   21.6000004       2.41855869E-05
   21.7199993       2.48277738E-05
   21.8400002       2.54778188E-05
   21.9599991       2.61354780E-05
   22.0799999       2.68004842E-05
   22.2000008       2.74725371E-05
   22.3199997       2.81513057E-05
   22.4400005       2.88364263E-05
   22.5599995       2.95275167E-05
   22.6800003       3.02241660E-05
   22.7999992       3.09259522E-05
   22.9200001       3.16324295E-05
   23.0400009       3.23431377E-05
   23.1599998       3.30576077E-05
   23.2800007       3.37753554E-05
   23.3999996       3.44958789E-05
   23.5200005       3.52186580E-05
   23.6399994       3.59431724E-05
   23.7600002       3.66688837E-05
   23.8799992       3.73952244E-05
   24.0000000       3.81216050E-05
   24.1200008       3.88474291E-05
   24.2399998       3.95720635E-05
   24.3600006       4.02948644E-05
   24.4799995       4.10151843E-05
   24.6000004       4.17323499E-05
   24.7199993       4.24457030E-05
   24.8400002       4.31545632E-05
   24.9599991       4.38582574E-05
   25.0799999       4.45560945E-05
   25.2000008       4.52473905E-05
   25.3199997       4.59314397E-05
   25.4400005       4.66075289E-05
   25.5599995       4.72749234E-05
   25.6800003       4.79328774E-05
   25.7999992       4.85806231E-05
   25.9200001       4.92173895E-05
   26.0400009       4.98423833E-05
   26.1599998       5.04548225E-05
   26.2800007       5.10539030E-05
   26.3999996       5.16388282E-05
   26.5200005       5.22087830E-05
   26.6399994       5.27629563E-05
   26.7600002       5.33005186E-05
   26.8799992       5.38206368E-05
   27.0000000       5.43224705E-05
   27.1200008       5.48051903E-05
   27.2399998       5.52679630E-05
   27.3600006       5.57099847E-05
   27.4799995       5.61304478E-05
   27.6000004       5.65285700E-05
   27.7199993       5.69035619E-05
   27.8400002       5.72546596E-05
   27.9599991       5.75810882E-05
   28.0799999       5.78821055E-05
   28.2000008       5.81569657E-05
   28.3199997       5.84049376E-05
   28.4400005       5.86252972E-05
   28.5599995       5.88173389E-05
   28.6800003       5.89803494E-05
   28.7999992       5.91136122E-05
   28.9200001       5.92164215E-05
   29.0400009       5.92880679E-05
   29.1599998       5.93278419E-05
   29.2800007       5.93350633E-05
   29.3999996       5.93090517E-05
   29.5200005       5.92491524E-05
   29.6399994       5.91547177E-05
   29.7600002       5.90251439E-05
   29.8799992       5.88598159E-05
   30.0000000       5.86581664E-05
   30.1200008       5.84196387E-05
   30.2399998       5.81437162E-05
   30.3600006       5.78299041E-05
   30.4799995       5.74777405E-05
   30.6000004       5.70867815E-05
   30.7199993       5.66565905E-05
   30.8400002       5.61867564E-05
   30.9599991       5.56768864E-05
   31.0799999       5.51266094E-05
   31.2000008       5.45355761E-05
   31.3199997       5.39034736E-05
   31.4400005       5.32300255E-05
   31.5599995       5.25149844E-05
   31.6800003       5.17581320E-05
   31.7999992       5.09592610E-05
   31.9200001       5.01181894E-05
   32.0400009       4.92347572E-05
   32.1599998       4.83088152E-05
   32.2799988       4.73402324E-05
   32.4000015       4.63289070E-05
   32.5200005       4.52747481E-05
   32.6399994       4.41777011E-05
   32.7599983       4.30377295E-05
   32.8800011       4.18548152E-05
   33.0000000       4.06289764E-05
   33.1199989       3.93602386E-05
   33.2400017       3.80486745E-05
   33.3600006       3.66943787E-05
   33.4799995       3.52974821E-05
   33.5999985       3.38581413E-05
   33.7200012       3.23765307E-05
   33.8400002       3.08528470E-05
   33.9599991       2.92872846E-05
   34.0800018       2.76800474E-05
   34.2000008       2.60313191E-05
   34.3199997       2.43412924E-05
   34.4399986       2.26101638E-05
   34.5600014       2.08381407E-05
   34.6800003       1.90254668E-05
   34.7999992       1.71724223E-05
   34.9199982       1.52793345E-05
   35.0400009       1.33465792E-05
   35.1599998       1.13745728E-05
   35.2799988       9.36376364E-06
   35.4000015       7.31461796E-06
   35.5200005       5.22761729E-06
   35.6399994       3.10323776E-06
   35.7599983       9.41950589E-07
   35.8800011      -1.25579209E-06
   36.0000000      -3.48955655E-06
   36.1199989      -5.75892773E-06
   36.2400017      -8.06350272E-06
   36.3600006      -1.04028832E-05
   36.4799995      -1.27766543E-05
   36.5999985      -1.51843769E-05
   36.7200012      -1.76255762E-05
   36.8400002      -2.00997401E-05
   36.9599991      -2.26063312E-05
   37.0800018      -2.51447818E-05
   37.2000008      -2.77145355E-05
   37.3199997      -3.03150446E-05
   37.4399986      -3.29458053E-05
   37.5600014      -3.56063429E-05
   37.6800003      -3.82962171E-05
   37.7999992      -4.10150205E-05
   37.9199982      -4.37623530E-05
   38.0400009      -4.65378253E-05
   38.1599998      -4.93410407E-05
   38.2799988      -5.21715847E-05
   38.4000015      -5.50290315E-05
   38.5200005      -5.79129483E-05
   38.6399994      -6.08229057E-05
   38.7599983      -6.37584890E-05
   38.8800011      -6.67192871E-05
   39.0000000      -6.97049327E-05
   39.1199989      -7.27150764E-05
   39.2400017      -7.57494345E-05
   39.3600006      -7.88077159E-05
   39.4799995      -8.18896951E-05
   39.5999985      -8.49951466E-05
   39.7200012      -8.81238739E-05
   39.8400002      -9.12757023E-05
   39.9599991      -9.44505009E-05
   40.0800018      -9.76481606E-05
   40.2000008      -1.00868587E-04
   40.3199997      -1.04111743E-04
   40.4399986      -1.07377593E-04
   40.5600014      -1.10666144E-04
   40.6800003      -1.13977418E-04
   40.7999992      -1.17311443E-04
   40.9199982      -1.20668257E-04
   41.0400009      -1.24047918E-04
   41.1599998      -1.27450534E-04
   41.2799988      -1.30876244E-04
   41.4000015      -1.34325222E-04
   41.5200005      -1.37797688E-04
   41.6399994      -1.41293931E-04
   41.7599983      -1.44814316E-04
   41.8800011      -1.48359162E-04
   42.0000000      -1.51928834E-04
   42.1199989      -1.55523710E-04
   42.2400017      -1.59144169E-04
   42.3600006      -1.62790631E-04
   42.4799995      -1.66463564E-04
   42.5999985      -1.70163432E-04
   42.7200012      -1.73890789E-04
   42.8400002      -1.77646201E-04
   42.9599991      -1.81430296E-04
   43.0800018      -1.85243742E-04
   43.2000008      -1.89087179E-04
   43.3199997      -1.92961321E-04
   43.4399986      -1.96866880E-04
   43.5600014      -2.00804556E-04
   43.6800003      -2.04775075E-04
   43.7999992      -2.08779136E-04
   43.9199982      -2.12817482E-04
   44.0400009      -2.16890840E-04
   44.1599998      -2.20999966E-04
   44.2799988      -2.25145704E-04
   44.4000015      -2.29328842E-04
   44.5200005      -2.33550236E-04
   44.6399994      -2.37810847E-04
   44.7599983      -2.42111491E-04
   44.8800011      -2.46453070E-04
   45.0000000      -2.50836340E-04
   45.1199989      -2.55262130E-04
   45.2400017      -2.59731110E-04
   45.3600006      -2.64243979E-04
   45.4799995      -2.68801494E-04
   45.5999985      -2.73404323E-04
   45.7200012      -2.78053194E-04
   45.8400002      -2.82748893E-04
   45.9599991      -2.87492032E-04
   46.0800018      -2.92283221E-04
   46.2000008      -2.97123013E-04
   46.3199997      -3.02011991E-04
   46.4399986      -3.06950649E-04
   46.5600014      -3.11939482E-04
   46.6800003      -3.16978840E-04
   46.7999992      -3.22069129E-04
   46.9199982      -3.27210641E-04
   47.0400009      -3.32403521E-04
   47.1599998      -3.37647914E-04
   47.2799988      -3.42943851E-04
   47.4000015      -3.48291302E-04
   47.5200005      -3.53690179E-04
   47.6399994      -3.59140366E-04
   47.7599983      -3.64641659E-04
   47.8800011      -3.70193826E-04
   48.0000000      -3.75796430E-04
   48.1199989      -3.81448976E-04
   48.2400017      -3.87150794E-04
   48.3600006      -3.92901129E-04
   48.4799995      -3.98699078E-04
   48.5999985      -4.04543622E-04
   48.7200012      -4.10433655E-04
   48.8400002      -4.16368042E-04
   48.9599991      -4.22345503E-04
   49.0800018      -4.28364670E-04
   49.2000008      -4.34424001E-04
   49.3199997      -4.40521777E-04
   49.4399986      -4.46656137E-04
   49.5600014      -4.52825014E-04
   49.6800003      -4.59026371E-04
   49.7999992      -4.65257908E-04
   49.9199982      -4.71517211E-04
   50.0400009      -4.77801834E-04
   50.1599998      -4.84109187E-04
   50.2799988      -4.90436505E-04
   50.4000015      -4.96780733E-04
   50.5200005      -5.03138814E-04
   50.6399994      -5.09507430E-04
   50.7599983      -5.15883148E-04
   50.8800011      -5.22262417E-04
   51.0000000      -5.28641453E-04
   51.1199989      -5.35016588E-04
   51.2400017      -5.41383750E-04
   51.3600006      -5.47738979E-04
   51.4799995      -5.54077851E-04
   51.5999985      -5.60396060E-04
   51.7200012      -5.66688890E-04
   51.8400002      -5.72951685E-04
   51.9599991      -5.79179672E-04
   52.0800018      -5.85367845E-04
   52.2000008      -5.91511198E-04
   52.3199997      -5.97604434E-04
   52.4399986      -6.03642256E-04
   52.5600014      -6.09619252E-04
   52.6800003      -6.15529600E-04
   52.7999992      -6.21367653E-04
   52.9199982      -6.27127651E-04
   53.0400009      -6.32803654E-04
   53.1599998      -6.38389611E-04
   53.2799988      -6.43879524E-04
   53.4000015      -6.49267284E-04
   53.5200005      -6.54546719E-04
   53.6399994      -6.59711426E-04
   53.7599983      -6.64755062E-04
   53.8800011      -6.69671048E-04
   54.0000000      -6.74452924E-04
   54.1199989      -6.79094112E-04
   54.2400017      -6.83588034E-04
   54.3600006      -6.87927997E-04
   54.4799995      -6.92107540E-04
   54.5999985      -6.96119911E-04
   54.7200012      -6.99958589E-04
   54.8400002      -7.03616824E-04
   54.9599991      -7.07087922E-04
   55.0800018      -7.10365304E-04
   55.2000008      -7.13442336E-04
   55.3199997      -7.16312556E-04
   55.4399986      -7.18969502E-04
   55.5600014      -7.21406890E-04
   55.6800003      -7.23618432E-04
   55.7999992      -7.25597900E-04
   55.9199982      -7.27339298E-04
   56.0400009      -7.28836516E-04
   56.1599998      -7.30083615E-04
   56.2799988      -7.31074833E-04
   56.4000015      -7.31804699E-04
   56.5200005      -7.32267683E-04
   56.6399994      -7.32458488E-04
   56.7599983      -7.32371933E-04
   56.8800011      -7.32003071E-04
   57.0000000      -7.31347012E-04
   57.1199989      -7.30399217E-04
   57.2400017      -7.29155494E-04
   57.3600006      -7.27611419E-04
   57.4799995      -7.25763442E-04
   57.5999985      -7.23607838E-04
   57.7200012      -7.21141347E-04
   57.8400002      -7.18360825E-04
   57.9599991      -7.15263537E-04
   58.0800018      -7.11846864E-04
   58.2000008      -7.08108651E-04
   58.3199997      -7.04046804E-04
   58.4399986      -6.99659868E-04
   58.5600014      -6.94946444E-04
   58.6800003      -6.89905428E-04
   58.7999992      -6.84536237E-04
   58.9199982      -6.78838522E-04
   59.0400009      -6.72812224E-04
   59.1599998      -6.66457927E-04
   59.2799988      -6.59776328E-04
   59.4000015      -6.52768766E-04
   59.5200005      -6.45436638E-04
   59.6399994      -6.37781923E-04
   59.7599983      -6.29806833E-04
   59.8800011      -6.21513987E-04
   60.0000000      -6.12906239E-04
   60.1199989      -6.03986904E-04
   60.2400017      -5.94759884E-04
   60.3600006      -5.85229311E-04
   60.4799995      -5.75399958E-04
   60.5999985      -5.65276889E-04
   60.7200012      -5.54865517E-04
   60.8400002      -5.44171548E-04
   60.9599991      -5.33201150E-04
   61.0800018      -5.21960726E-04
   61.2000008      -5.10457205E-04
   61.3199997      -4.98697686E-04
   61.4399986      -4.86689765E-04
   61.5600014      -4.74441535E-04
   61.6800003      -4.61961288E-04
   61.7999992      -4.49257845E-04
   61.9199982      -4.36340313E-04
   62.0400009      -4.23218095E-04
   62.1599998      -4.09900880E-04
   62.2799988      -3.96398653E-04
   62.4000015      -3.82721715E-04
   62.5200005      -3.68880515E-04
   62.6399994      -3.54885997E-04
   62.7599983      -3.40749219E-04
   62.8800011      -3.26481590E-04
   63.0000000      -3.12094693E-04
   63.1199989      -2.97600462E-04
   63.2400017      -2.83010915E-04
   63.3600006      -2.68338365E-04
   63.4799995      -2.53595266E-04
   63.5999985      -2.38794310E-04
   63.7200012      -2.23948329E-04
   63.8400002      -2.09070291E-04
   63.9599991      -1.94173219E-04
   64.0800018      -1.79270268E-04
   64.1999969      -1.64374564E-04
   64.3199997      -1.49499261E-04
   64.4400024      -1.34657545E-04
   64.5599976      -1.19862591E-04
   64.6800003      -1.05127663E-04
   64.8000031      -9.04660410E-05
   64.9199982      -7.58910246E-05
   65.0400009      -6.14158562E-05
   65.1600037      -4.70537052E-05
   65.2799988      -3.28176357E-05
   65.4000015      -1.87205496E-05
   65.5199966      -4.77519961E-06
   65.6399994       9.00584018E-06
   65.7600021       2.26101929E-05
   65.8799973       3.60257036E-05
   66.0000000       4.92404361E-05
   66.1200027       6.22426596E-05
   66.2399979       7.50209147E-05
   66.3600006       8.75639817E-05
   66.4800034       9.98609103E-05
   66.5999985       1.11901019E-04
   66.7200012       1.23673963E-04
   66.8399963       1.35169728E-04
   66.9599991       1.46378690E-04
   67.0800018       1.57291637E-04
   67.1999969       1.67899780E-04
   67.3199997       1.78194765E-04
   67.4400024       1.88168633E-04
   67.5599976       1.97813832E-04
   67.6800003       2.07123303E-04
   67.8000031       2.16090339E-04
   67.9199982       2.24708740E-04
   68.0400009       2.32972729E-04
   68.1600037       2.40877023E-04
   68.2799988       2.48416822E-04
   68.4000015       2.55587744E-04
   68.5199966       2.62385991E-04
   68.6399994       2.68808217E-04
   68.7600021       2.74851744E-04
   68.8799973       2.80514301E-04
   69.0000000       2.85794347E-04
   69.1200027       2.90690747E-04
   69.2399979       2.95202946E-04
   69.3600006       2.99330801E-04
   69.4800034       3.03074630E-04
   69.5999985       3.06435279E-04
   69.7200012       3.09414027E-04
   69.8399963       3.12012766E-04
   69.9599991       3.14233941E-04
   70.0800018       3.16080550E-04
   70.1999969       3.17556085E-04
   70.3199997       3.18664534E-04
   70.4400024       3.19410407E-04
   70.5599976       3.19798448E-04
   70.6800003       3.19834042E-04
   70.8000031       3.19522864E-04
   70.9199982       3.18871025E-04
   71.0400009       3.17885249E-04
   71.1600037       3.16572521E-04
   71.2799988       3.14940378E-04
   71.4000015       3.12996621E-04
   71.5199966       3.10749485E-04
   71.6399994       3.08207353E-04
   71.7600021       3.05379042E-04
   71.8799973       3.02273693E-04
   72.0000000       2.98900617E-04
   72.1200027       2.95269594E-04
   72.2399979       2.91390606E-04
   72.3600006       2.87273870E-04
   72.4800034       2.82929948E-04
   72.5999985       2.78369465E-04
   72.7200012       2.73603160E-04