  -30.0000000       0.00000000    
  -29.8799992       0.00000000    
  -29.7600002       0.00000000    
  -29.6399994       0.00000000    
  -29.5200005       0.00000000    
  -29.3999996       0.00000000    
  -29.2800007       4.74930355E-25
  -29.1599998       5.39074923E-24
  -29.0400009       2.92497791E-23
  -28.9200001       9.62577606E-23
  -28.7999992       1.88882432E-22
  -28.6800003       9.00050534E-23
  -28.5599995      -8.45057589E-22
  -28.4400005      -3.68936366E-21
  -28.3199997      -9.11387357E-21
  -28.2000008      -1.51837693E-20
  -28.0799999      -1.42012662E-20
  -27.9599991       9.00325512E-21
  -27.8400002       7.28087542E-20
  -27.7199993       1.83794866E-19
  -27.6000004       3.10225791E-19
  -27.4799995       3.52820785E-19
  -27.3600006       1.35136057E-19
  -27.2399998      -5.52388990E-19
  -27.1200008      -1.82124367E-18
  -27.0000000      -3.45979872E-18
  -26.8799992      -4.67236650E-18
  -26.7600002      -3.94033192E-18
  -26.6399994       7.36274652E-19
  -26.5200005       1.09378961E-17
  -26.3999996       2.61595587E-17
  -26.2800007       4.17303255E-17
  -26.1599998       4.73677202E-17
  -26.0400009       2.80840490E-17
  -25.9200001      -3.07347328E-17
  -25.7999992      -1.33342296E-16
  -25.6800003      -2.60618485E-16
  -25.5599995      -3.59624673E-16
  -25.4400005      -3.44603999E-16
  -25.3199997      -1.18676529E-16
  -25.2000008       3.79539635E-16
  -25.0799999       1.11155858E-15
  -24.9599991       1.87971243E-15
  -24.8400002       2.30951665E-15
  -24.7199993       1.91338305E-15
  -24.6000004       2.59009890E-16
  -24.4799995      -2.77340589E-15
  -24.3600006      -6.71653336E-15
  -24.2399998      -1.03485835E-14
  -24.1200008      -1.17812779E-14
  -24.0000000      -8.91591031E-15
  -23.8799992      -2.71462148E-16
  -23.7600002       1.39819602E-14
  -23.6399994       3.11367922E-14
  -23.5200005       4.56839156E-14
  -23.3999996       5.01182077E-14
  -23.2800007       3.70205507E-14
  -23.1599998       2.17281633E-15
  -23.0400009      -5.20991772E-14
  -22.9200001      -1.14638537E-13
  -22.7999992      -1.65661931E-13
  -22.6800003      -1.80503954E-13
  -22.5599995      -1.36953993E-13
  -22.4400005      -2.47970928E-14
  -22.3199997       1.45291887E-13
  -22.2000008       3.37234282E-13
  -22.0799999       4.92856515E-13
  -21.9599991       5.44677747E-13
  -21.8400002       4.36736069E-13
  -21.7199993       1.48406203E-13
  -21.6000004      -2.86661835E-13
  -21.4799995      -7.75009776E-13
  -21.3600006      -1.17730803E-12
  -21.2399998      -1.34229748E-12
  -21.1200008      -1.15398847E-12
  -21.0000000      -5.78732754E-13
  -20.8799992       3.04445840E-13
  -20.7600002       1.30459261E-12
  -20.6399994       2.15681422E-12
  -20.5200005       2.59157105E-12
  -20.3999996       2.41710753E-12
  -20.2800007       1.58925965E-12
  -20.1599998       2.43544551E-13
  -20.0400009      -1.32559025E-12
  -19.9200001      -2.73679560E-12
  -19.7999992      -3.62569870E-12
  -19.6800003      -3.74886363E-12
  -19.5599995      -3.05441479E-12
  -19.4400005      -1.69624644E-12
  -19.3199997       1.22581041E-14
  -19.2000008       1.68855164E-12
  -19.0799999       2.98464313E-12
  -18.9599991       3.67117968E-12
  -18.8400002       3.67874091E-12
  -18.7199993       3.09066618E-12
  -18.6000004       2.09887880E-12
  -18.4799995       9.43804930E-13
  -18.3600006      -1.41670529E-13
  -18.2399998      -9.73702239E-13
  -18.1200008      -1.44498075E-12
  -18.0000000      -1.54415456E-12
  -17.8799992      -1.36929953E-12
  -17.7600002      -1.12724706E-12
  -17.6399994      -1.10185103E-12
  -17.5200005      -1.57625562E-12
  -17.3999996      -2.71151461E-12
  -17.2800007      -4.41226396E-12
  -17.1599998      -6.23658243E-12
  -17.0400009      -7.41495667E-12
  -16.9200001      -7.02024289E-12
  -16.7999992      -4.27710645E-12
  -16.6800003       1.06831211E-12
  -16.5599995       8.45169507E-12
  -16.4400005       1.64112612E-11
  -16.3199997       2.28219960E-11
  -16.2000008       2.54378203E-11
  -16.0799999       2.26120234E-11
  -15.9600000       1.39670940E-11
  -15.8400002       7.56941818E-13
  -15.7200003      -1.42674197E-11
  -15.6000004      -2.75230810E-11
  -15.4799995      -3.56314804E-11
  -15.3599997      -3.65022873E-11
  -15.2399998      -3.00780720E-11
  -15.1199999      -1.84294646E-11
  -15.0000000      -5.09809903E-12
  -14.8800001       6.13969986E-12
  -14.7600002       1.26702242E-11
  -14.6400003       1.40686881E-11
  -14.5200005       1.23041941E-11
  -14.3999996       1.09454954E-11
  -14.2799997       1.35720341E-11
  -14.1599998       2.19498638E-11
  -14.0400000       3.47131594E-11
  -13.9200001       4.71999557E-11
  -13.8000002       5.27204981E-11
  -13.6800003       4.49945151E-11
  -13.5600004       2.09711571E-11
  -13.4399996      -1.70447111E-11
  -13.3199997      -6.09424802E-11
  -13.1999998      -9.85153487E-11
  -13.0799999      -1.17046497E-10
  -12.9600000      -1.07718244E-10
  -12.8400002      -6.93178639E-11
  -12.7200003      -9.76366731E-12
  -12.6000004       5.54030398E-11
  -12.4799995       1.07389424E-10
  -12.3599997       1.30132349E-10
  -12.2399998       1.15903023E-10
  -12.1199999       6.84836979E-11
  -12.0000000       2.56037162E-12
  -11.8800001      -6.07567052E-11
  -11.7600002      -1.00959317E-10
  -11.6400003      -1.05347508E-10
  -11.5200005      -7.38030331E-11
  -11.3999996      -1.92216174E-11
  -11.2799997       3.68387057E-11
  -11.1599998       7.19994689E-11
  -11.0400000       7.17174653E-11
  -10.9200001       3.55843341E-11
  -10.8000002      -2.12627849E-11
  -10.6800003      -7.25477109E-11
  -10.5600004      -8.99588598E-11
  -10.4399996      -5.40563150E-11
  -10.3199997       3.67573680E-11
  -10.1999998       1.62507743E-10
  -10.0799999       2.84841789E-10
  -9.96000004       3.56534136E-10
  -9.84000015       3.34515998E-10
  -9.72000027       1.92336438E-10
  -9.60000038      -7.19708598E-11
  -9.47999954      -4.35199238E-10
  -9.35999966      -8.55690463E-10
  -9.23999977      -1.28523814E-09
  -9.11999989      -1.68223913E-09
  -9.00000000      -2.02180628E-09
  -8.88000011      -2.29969310E-09
  -8.76000023      -2.52911403E-09
  -8.64000034      -2.73205014E-09
  -8.52000046      -2.92855384E-09
  -8.39999962      -3.12814685E-09
  -8.27999973      -3.32650174E-09
  -8.15999985      -3.50850571E-09
  -8.03999996      -3.65632791E-09
  -7.92000008      -3.75919340E-09
  -7.80000019      -3.82090271E-09
  -7.67999983      -3.86199561E-09
  -7.55999994      -3.91550348E-09
  -7.44000006      -4.01767908E-09
  -7.32000017      -4.19701385E-09
  -7.19999981      -4.46552528E-09
  -7.07999992      -4.81547024E-09
  -6.96000004      -5.22266141E-09
  -6.84000015      -5.65514524E-09
  -6.71999979      -6.08410700E-09
  -6.59999990      -6.49311893E-09
  -6.48000002      -6.88254209E-09
  -6.36000013      -7.26770732E-09
  -6.23999977      -7.67176722E-09
  -6.11999989      -8.11598788E-09
  -6.00000000      -8.61110117E-09
  -5.88000011      -9.15290688E-09
  -5.76000023      -9.72373204E-09
  -5.63999987      -1.02992779E-08
  -5.51999998      -1.08584617E-08
  -5.40000010      -1.13927721E-08
  -5.28000021      -1.19117676E-08
  -5.15999985      -1.24425945E-08
  -5.03999996      -1.30234348E-08
  -4.92000008      -1.36928939E-08
  -4.80000019      -1.44788430E-08
  -4.67999983      -1.53905972E-08
  -4.55999994      -1.64172924E-08
  -4.44000006      -1.75333259E-08
  -4.32000017      -1.87091977E-08
  -4.19999981      -1.99240908E-08
  -4.07999992      -2.11756834E-08
  -3.96000004      -2.24834888E-08
  -3.83999991      -2.38841906E-08
  -3.72000003      -2.54204036E-08
  -3.59999990      -2.71268590E-08
  -3.48000002      -2.90192137E-08
  -3.35999990      -3.10899395E-08
  -3.24000001      -3.33133023E-08
  -3.11999989      -3.56578802E-08
  -3.00000000      -3.81020868E-08
  -2.88000011      -4.06465652E-08
  -2.75999999      -4.33180922E-08
  -2.64000010      -4.61626009E-08
  -2.51999998      -4.92288841E-08
  -2.40000010      -5.25483337E-08
  -2.27999997      -5.61180968E-08
  -2.16000009      -5.98943473E-08
  -2.03999996      -6.37993907E-08
  -1.91999996      -6.77415315E-08
  -1.79999995      -7.16422832E-08
  -1.67999995      -7.54623457E-08
  -1.55999994      -7.92179122E-08
  -1.44000006      -8.29812805E-08
  -1.32000005      -8.68648016E-08
  -1.20000005      -9.09924722E-08
  -1.08000004      -9.54674491E-08
 -0.959999979      -1.00345353E-07
 -0.839999974      -1.05621709E-07
 -0.720000029      -1.11237298E-07
 -0.600000024      -1.17099901E-07
 -0.479999989      -1.23115498E-07
 -0.360000014      -1.29219245E-07
 -0.239999995      -1.35396405E-07
 -0.119999997      -1.41686670E-07
  -1.11022302E-15  -1.48170741E-07
  0.119999997      -1.54943251E-07
  0.239999995      -1.62080894E-07
  0.360000014      -1.69615930E-07
  0.479999989      -1.77523731E-07
  0.600000024      -1.85728396E-07
  0.720000029      -1.94125164E-07
  0.839999974      -2.02612540E-07
  0.959999979      -2.11124117E-07
   1.08000004      -2.19650005E-07
   1.20000005      -2.28240722E-07
   1.32000005      -2.36992008E-07
   1.44000006      -2.46015190E-07
   1.55999994      -2.55402256E-07
   1.67999995      -2.65196547E-07
   1.79999995      -2.75379051E-07
   1.91999996      -2.85874108E-07
   2.03999996      -2.96572807E-07
   2.16000009      -3.07365838E-07
   2.27999997      -3.18174870E-07
   2.40000010      -3.28970629E-07
   2.51999998      -3.39772129E-07
   2.64000010      -3.50626607E-07
   2.75999999      -3.61577889E-07
   2.88000011      -3.72634020E-07
   3.00000000      -3.83746510E-07
   3.11999989      -3.94808353E-07
   3.24000001      -4.05671784E-07
   3.35999990      -4.16179688E-07
   3.48000002      -4.26199193E-07
   3.59999990      -4.35645518E-07
   3.72000003      -4.44488137E-07
   3.83999991      -4.52737822E-07
   3.96000004      -4.60420097E-07
   4.07999992      -4.67545419E-07
   4.19999981      -4.74087727E-07
   4.32000017      -4.79978496E-07
   4.44000006      -4.85117710E-07
   4.55999994      -4.89395745E-07
   4.67999983      -4.92716424E-07
   4.80000019      -4.95010511E-07
   4.92000008      -4.96232360E-07
   5.03999996      -4.96340363E-07
   5.15999985      -4.95267557E-07
   5.28000021      -4.92893491E-07
   5.40000010      -4.89029503E-07
   5.51999998      -4.83423776E-07
   5.63999987      -4.75786578E-07
   5.76000023      -4.65829146E-07
   5.88000011      -4.53302334E-07
   6.00000000      -4.38023108E-07
   6.11999989      -4.19879086E-07
   6.23999977      -3.98808993E-07
   6.36000013      -3.74765108E-07
   6.48000002      -3.47669300E-07
   6.59999990      -3.17375537E-07
   6.71999979      -2.83650792E-07
   6.84000015      -2.46177933E-07
   6.96000004      -2.04579578E-07
   7.07999992      -1.58453744E-07
   7.19999981      -1.07410706E-07
   7.32000017      -5.10991462E-08
   7.44000006       1.07837543E-08
   7.55999994       7.85019623E-08
   7.67999983       1.52303784E-07
   7.80000019       2.32452322E-07
   7.92000008       3.19250887E-07
   8.03999996       4.13057478E-07
   8.15999985       5.14283329E-07
   8.27999973       6.23375968E-07
   8.39999962       7.40794746E-07
   8.52000046       8.66987591E-07
   8.64000034       1.00237787E-06
   8.76000023       1.14736758E-06
   8.88000011       1.30235446E-06
   9.00000000       1.46775938E-06
   9.11999989       1.64404787E-06
   9.23999977       1.83174132E-06
   9.35999966       2.03140667E-06
   9.47999954       2.24363384E-06
   9.60000038       2.46900345E-06
   9.72000027       2.70806504E-06
   9.84000015       2.96132930E-06
   9.96000004       3.22928486E-06
   10.0799999       3.51243216E-06
   10.1999998       3.81131804E-06
   10.3199997       4.12656573E-06
   10.4399996       4.45887872E-06
   10.5600004       4.80902918E-06
   10.6800003       5.17781928E-06
   10.8000002       5.56604891E-06
   10.9200001       5.97448570E-06
   11.0400000       6.40385542E-06
   11.1599998       6.85484656E-06
   11.2799997       7.32813260E-06
   11.3999996       7.82439747E-06
   11.5200005       8.34435650E-06
   11.6400003       8.88876639E-06
   11.7600002       9.45842930E-06
   11.8800001       1.00541829E-05
   12.0000000       1.06768912E-05
   12.1199999       1.13274400E-05
   12.2399998       1.20067234E-05
   12.3599997       1.27156472E-05
   12.4799995       1.34551283E-05
   12.6000004       1.42260915E-05
   12.7200003       1.50294754E-05
   12.8400002       1.58662315E-05
   12.9600000       1.67373219E-05
   13.0799999       1.76437206E-05
   13.1999998       1.85864155E-05
   13.3199997       1.95663724E-05
   13.4399996       2.05845627E-05
   13.5600004       2.16419285E-05
   13.6800003       2.27393903E-05
   13.8000002       2.38778448E-05
   13.9200001       2.50581834E-05
   14.0400000       2.62812991E-05
   14.1599998       2.75481143E-05
   14.2799997       2.88595947E-05
   14.3999996       3.02167573E-05
   14.5200005       3.16206679E-05
   14.6400003       3.30724288E-05
   14.7600002       3.45731423E-05
   14.8800001       3.61239072E-05
   15.0000000       3.77257711E-05
   15.1199999       3.93797345E-05
   15.2399998       4.10867578E-05
   15.3599997       4.28477615E-05
   15.4799995       4.46636768E-05
   15.6000004       4.65354497E-05
   15.7200003       4.84640332E-05
   15.8400002       5.04503987E-05
   15.9600000       5.24954921E-05
   16.0799999       5.46002193E-05
   16.2000008       5.67654279E-05
   16.3199997       5.89919109E-05
   16.4400005       6.12804361E-05
   16.5599995       6.36317709E-05
   16.6800003       6.60466976E-05
   16.7999992       6.85260311E-05
   16.9200001       7.10705572E-05
   17.0400009       7.36810689E-05
   17.1599998       7.63582721E-05
   17.2800007       7.91027924E-05
   17.3999996       8.19151828E-05
   17.5200005       8.47959600E-05
   17.6399994       8.77456259E-05
   17.7600002       9.07647191E-05
   17.8799992       9.38538433E-05
   18.0000000       9.70136098E-05
   18.1200008       1.00244608E-04
   18.2399998       1.03547347E-04
   18.3600006       1.06922242E-04
   18.4799995       1.10369554E-04
   18.6000004       1.13889422E-04
   18.7199993       1.17481897E-04
   18.8400002       1.21146950E-04
   18.9599991       1.24884507E-04
   19.0799999       1.28694461E-04
   19.2000008       1.32576723E-04
   19.3199997       1.36531104E-04
   19.4400005       1.40557371E-04
   19.5599995       1.44655234E-04
   19.6800003       1.48824343E-04
   19.7999992       1.53064248E-04
   19.9200001       1.57374496E-04
   20.0400009       1.61754593E-04
   20.1599998       1.66203987E-04
   20.2800007       1.70722036E-04
   20.3999996       1.75308029E-04
   20.5200005       1.79961091E-04
   20.6399994       1.84680262E-04
   20.7600002       1.89464423E-04
   20.8799992       1.94312335E-04
   21.0000000       1.99222632E-04
   21.1200008       2.04193828E-04
   21.2399998       2.09224338E-04
   21.3600006       2.14312517E-04
   21.4799995       2.19456604E-04
   21.6000004       2.24654752E-04
   21.7199993       2.29905025E-04
   21.8400002       2.35205385E-04
   21.9599991       2.40553767E-04
   22.0799999       2.45947973E-04
   22.2000008       2.51385733E-04
   22.3199997       2.56864703E-04
   22.4400005       2.62382324E-04
   22.5599995       2.67935859E-04
   22.6800003       2.73522426E-04
   22.7999992       2.79138942E-04
   22.9200001       2.84782320E-04
   23.0400009       2.90449243E-04
   23.1599998       2.96136423E-04
   23.2800007       3.01840395E-04
   23.3999996       3.07557668E-04
   23.5200005       3.13284545E-04
   23.6399994       3.19017068E-04
   23.7600002       3.24751105E-04
   23.8799992       3.30482435E-04
   24.0000000       3.36206576E-04
   24.1200008       3.41919134E-04
   24.2399998       3.47615656E-04
   24.3600006       3.53291660E-04
   24.4799995       3.58942663E-04
   24.6000004       3.64564039E-04
   24.7199993       3.70150956E-04
   24.8400002       3.75698495E-04
   24.9599991       3.81201389E-04
   25.0799999       3.86654283E-04
   25.2000008       3.92051646E-04
   25.3199997       3.97387863E-04
   25.4400005       4.02657257E-04
   25.5599995       4.07854037E-04
   25.6800003       4.12972440E-04
   25.7999992       4.18006617E-04
   25.9200001       4.22950689E-04
   26.0400009       4.27798601E-04
   26.1599998       4.32544417E-04
   26.2800007       4.37181967E-04
   26.3999996       4.41705051E-04
   26.5200005       4.46107355E-04
   26.6399994       4.50382446E-04
   26.7600002       4.54523746E-04
   26.8799992       4.58524708E-04
   27.0000000       4.62378754E-04
   27.1200008       4.66079335E-04
   27.2399998       4.69620078E-04
   27.3600006       4.72994638E-04
   27.4799995       4.76196670E-04
   27.6000004       4.79219831E-04
   27.7199993       4.82057862E-04
   27.8400002       4.84704273E-04
   27.9599991       4.87152574E-04
   28.0799999       4.89396276E-04
   28.2000008       4.91428887E-04
   28.3199997       4.93244093E-04
   28.4400005       4.94835433E-04
   28.5599995       4.96196793E-04
   28.6800003       4.97322239E-04
   28.7999992       4.98205773E-04
   28.9200001       4.98841866E-04
   29.0400009       4.99225047E-04
   29.1599998       4.99349902E-04
   29.2800007       4.99211368E-04
   29.3999996       4.98804438E-04
   29.5200005       4.98124107E-04
   29.6399994       4.97165427E-04
   29.7600002       4.95923450E-04
   29.8799992       4.94393345E-04
   30.0000000       4.92570747E-04
   30.1200008       4.90451464E-04
   30.2399998       4.88031714E-04
   30.3600006       4.85308265E-04
   30.4799995       4.82278003E-04
   30.6000004       4.78938018E-04
   30.7199993       4.75285633E-04
   30.8400002       4.71318286E-04
   30.9599991       4.67033620E-04
   31.0799999       4.62429540E-04
   31.2000008       4.57504240E-04
   31.3199997       4.52256325E-04
   31.4400005       4.46684862E-04
   31.5599995       4.40789183E-04
   31.6800003       4.34569054E-04
   31.7999992       4.28024621E-04
   31.9200001       4.21156379E-04
   32.0400009       4.13965143E-04
   32.1599998       4.06452251E-04
   32.2799988       3.98619450E-04
   32.4000015       3.90468776E-04
   32.5200005       3.82002705E-04
   32.6399994       3.73223884E-04
   32.7599983       3.64135223E-04
   32.8800011       3.54739925E-04
   33.0000000       3.45041393E-04
   33.1199989       3.35043558E-04
   33.2400017       3.24750756E-04
   33.3600006       3.14167934E-04
   33.4799995       3.03300505E-04
   33.5999985       2.92154553E-04
   33.7200012       2.80736480E-04
   33.8400002       2.69053126E-04
   33.9599991       2.57111678E-04
   34.0800018       2.44919473E-04
   34.2000008       2.32484148E-04
   34.3199997       2.19813679E-04
   34.4399986       2.06916273E-04
   34.5600014       1.93800661E-04
   34.6800003       1.80475967E-04
   34.7999992       1.66951751E-04
   34.9199982       1.53237983E-04
   35.0400009       1.39344847E-04
   35.1599998       1.25282764E-04
   35.2799988       1.11062334E-04
   35.4000015       9.66943990E-05
   35.5200005       8.21900830E-05
   35.6399994       6.75609044E-05
   35.7599983       5.28187920E-05
   35.8800011       3.79760640E-05
   36.0000000       2.30452843E-05
   36.1199989       8.03914645E-06
   36.2400017      -7.02960597E-06
   36.3600006      -2.21481787E-05
   36.4799995      -3.73036637E-05
   36.5999985      -5.24829775E-05
   36.7200012      -6.76727868E-05
   36.8400002      -8.28595148E-05
   36.9599991      -9.80294426E-05
   37.0800018      -1.13168782E-04
   37.2000008      -1.28263870E-04
   37.3199997      -1.43301164E-04
   37.4399986      -1.58267154E-04
   37.5600014      -1.73148350E-04
   37.6800003      -1.87931117E-04
   37.7999992      -2.02601805E-04
   37.9199982      -2.17146633E-04
   38.0400009      -2.31551909E-04
   38.1599998      -2.45804113E-04
   38.2799988      -2.59890046E-04
   38.4000015      -2.73796642E-04
   38.5200005      -2.87511153E-04
   38.6399994      -3.01021006E-04
   38.7599983      -3.14313656E-04
   38.8800011      -3.27376678E-04
   39.0000000      -3.40197934E-04
   39.1199989      -3.52765433E-04
   39.2400017      -3.65067710E-04
   39.3600006      -3.77093558E-04
   39.4799995      -3.88832326E-04
   39.5999985      -4.00273362E-04
   39.7200012      -4.11406421E-04
   39.8400002      -4.22221434E-04
   39.9599991      -4.32708621E-04
   40.0800018      -4.42858727E-04
   40.2000008      -4.52662935E-04
   40.3199997      -4.62113065E-04
   40.4399986      -4.71201638E-04
   40.5600014      -4.79921582E-04
   40.6800003      -4.88266291E-04
   40.7999992      -4.96229390E-04
   40.9199982      -5.03804884E-04
   41.0400009      -5.10987011E-04
   41.1599998      -5.17770532E-04
   41.2799988      -5.24150790E-04
   41.4000015      -5.30123885E-04
   41.5200005      -5.35686326E-04
   41.6399994      -5.40835550E-04
   41.7599983      -5.45569346E-04
   41.8800011      -5.49886026E-04
   42.0000000      -5.53784310E-04
   42.1199989      -5.57263498E-04
   42.2400017      -5.60323359E-04
   42.3600006      -5.62964415E-04
   42.4799995      -5.65187365E-04
   42.5999985      -5.66993724E-04
   42.7200012      -5.68385527E-04
   42.8400002      -5.69365220E-04
   42.9599991      -5.69935597E-04
   43.0800018      -5.70100092E-04
   43.2000008      -5.69862663E-04
   43.3199997      -5.69227734E-04
   43.4399986      -5.68200252E-04
   43.5600014      -5.66785806E-04
   43.6800003      -5.64990274E-04
   43.7999992      -5.62820118E-04
   43.9199982      -5.60282206E-04
   44.0400009      -5.57383755E-04
   44.1599998      -5.54132566E-04
   44.2799988      -5.50536555E-04
   44.4000015      -5.46604104E-04
   44.5200005      -5.42343885E-04
   44.6399994      -5.37764921E-04
   44.7599983      -5.32876700E-04
   44.8800011      -5.27688942E-04
   45.0000000      -5.22211718E-04
   45.1199989      -5.16455504E-04
   45.2400017      -5.10430895E-04
   45.3600006      -5.04148775E-04
   45.4799995      -4.97620262E-04
   45.5999985      -4.90856532E-04
   45.7200012      -4.83869197E-04
   45.8400002      -4.76669986E-04
   45.9599991      -4.69270715E-04
   46.0800018      -4.61683259E-04
   46.2000008      -4.53919551E-04
   46.3199997      -4.45991463E-04
   46.4399986      -4.37910989E-04
   46.5600014      -4.29689971E-04
   46.6800003      -4.21340432E-04
   46.7999992      -4.12874535E-04
   46.9199982      -4.04304505E-04
   47.0400009      -3.95642623E-04
   47.1599998      -3.86901054E-04
   47.2799988      -3.78091820E-04
   47.4000015      -3.69226735E-04
   47.5200005      -3.60317499E-04
   47.6399994      -3.51375580E-04
   47.7599983      -3.42412415E-04
   47.8800011      -3.33439297E-04
   48.0000000      -3.24467430E-04
   48.1199989      -3.15507728E-04
   48.2400017      -3.06570728E-04
   48.3600006      -2.97666702E-04
   48.4799995      -2.88805546E-04
   48.5999985      -2.79996864E-04
   48.7200012      -2.71250145E-04
   48.8400002      -2.62574846E-04
   48.9599991      -2.53980135E-04
   49.0800018      -2.45475007E-04
   49.2000008      -2.37068030E-04
   49.3199997      -2.28767443E-04
   49.4399986      -2.20581016E-04
   49.5600014      -2.12516112E-04
   49.6800003      -2.04579686E-04
   49.7999992      -1.96778390E-04
   49.9199982      -1.89118509E-04
   50.0400009      -1.81605952E-04
   50.1599998      -1.74246263E-04
   50.2799988      -1.67044622E-04
   50.4000015      -1.60005875E-04
   50.5200005      -1.53134635E-04
   50.6399994      -1.46435195E-04
   50.7599983      -1.39911557E-04
   50.8800011      -1.33567286E-04
   51.0000000      -1.27405408E-04
   51.1199989      -1.21428464E-04
   51.2400017      -1.15638511E-04
   51.3600006      -1.10037261E-04
   51.4799995      -1.04626182E-04
   51.5999985      -9.94065704E-05
   51.7200012      -9.43795385E-05
   51.8400002      -8.95458870E-05
   51.9599991      -8.49060016E-05
   52.0800018      -8.04597730E-05
   52.2000008      -7.62066338E-05
   52.3199997      -7.21456745E-05
   52.4399986      -6.82758109E-05
   52.5600014      -6.45958207E-05
   52.6800003      -6.11043724E-05
   52.7999992      -5.77999053E-05
   52.9199982      -5.46805131E-05
   53.0400009      -5.17437911E-05
   53.1599998      -4.89868580E-05
   53.2799988      -4.64064797E-05
   53.4000015      -4.39992364E-05
   53.5200005      -4.17617448E-05
   53.6399994      -3.96907199E-05
   53.7599983      -3.77829456E-05
   53.8800011      -3.60351405E-05
   54.0000000      -3.44437794E-05
   54.1199989      -3.30049443E-05
   54.2400017      -3.17143167E-05
   54.3600006      -3.05672511E-05
   54.4799995      -2.95589143E-05
   54.5999985      -2.86844679E-05
   54.7200012      -2.79391443E-05
   54.8400002      -2.73182686E-05
   54.9599991      -2.68172171E-05
   55.0800018      -2.64313458E-05
   55.2000008      -2.61559398E-05
   55.3199997      -2.59862081E-05
   55.4399986      -2.59173066E-05
   55.5600014      -2.59443750E-05
   55.6800003      -2.60625457E-05
   55.7999992      -2.62669346E-05
   55.9199982      -2.65526069E-05
   56.0400009      -2.69145512E-05
   56.1599998      -2.73477017E-05
   56.2799988      -2.78469979E-05
   56.4000015      -2.84074595E-05
   56.5200005      -2.90242788E-05
   56.6399994      -2.96928592E-05
   56.7599983      -3.04087898E-05
   56.8800011      -3.11678123E-05
   57.0000000      -3.19657411E-05
   57.1199989      -3.27984126E-05
   57.2400017      -3.36616831E-05
   57.3600006      -3.45514563E-05
   57.4799995      -3.54637232E-05
   57.5999985      -3.63945874E-05
   57.7200012      -3.73402690E-05
   57.8400002      -3.82971120E-05
   57.9599991      -3.92615366E-05
   58.0800018      -4.02300393E-05
   58.2000008      -4.11992150E-05
   58.3199997      -4.21657860E-05
   58.4399986      -4.31266599E-05
   58.5600014      -4.40789663E-05
   58.6800003      -4.50200678E-05
   58.7999992      -4.59475523E-05
   58.9199982      -4.68591970E-05
   59.0400009      -4.77529284E-05
   59.1599998      -4.86267600E-05
   59.2799988      -4.94787382E-05
   59.4000015      -5.03068986E-05
   59.5200005      -5.11092439E-05
   59.6399994      -5.18837660E-05
   59.7599983      -5.26285367E-05
   59.8800011      -5.33418606E-05
   60.0000000      -5.40223336E-05
   60.1199989      -5.46689371E-05
   60.2400017      -5.52810270E-05
   60.3600006      -5.58581633E-05
   60.4799995      -5.63999783E-05
   60.5999985      -5.69060212E-05
   60.7200012      -5.73756806E-05
   60.8400002      -5.78082108E-05
   60.9599991      -5.82028879E-05
   61.0800018      -5.85591515E-05
   61.2000008      -5.88766889E-05
   61.3199997      -5.91554708E-05
   61.4399986      -5.93956684E-05
   61.5600014      -5.95975398E-05
   61.6800003      -5.97613653E-05
   61.7999992      -5.98874612E-05
   61.9199982      -5.99762134E-05
   62.0400009      -6.00281674E-05
   62.1599998      -6.00440508E-05
   62.2799988      -6.00246603E-05
   62.4000015      -5.99707819E-05
   62.5200005      -5.98830411E-05
   62.6399994      -5.97618637E-05
   62.7599983      -5.96075661E-05
   62.8800011      -5.94205303E-05
   63.0000000      -5.92013930E-05
   63.1199989      -5.89511510E-05
   63.2400017      -5.86711176E-05
   63.3600006      -5.83627625E-05
   63.4799995      -5.80274864E-05
   63.5999985      -5.76664788E-05
   63.7200012      -5.72807076E-05
   63.8400002      -5.68709802E-05
   63.9599991      -5.64381553E-05
   64.0800018      -5.59832224E-05
   64.1999969      -5.55073675E-05
   64.3199997      -5.50118421E-05
   64.4400024      -5.44978575E-05
   64.5599976      -5.39664252E-05
   64.6800003      -5.34183891E-05
   64.8000031      -5.28545133E-05
   64.9199982      -5.22756454E-05
   65.0400009      -5.16828259E-05
   65.1600037      -5.10773098E-05
   65.2799988      -5.04604759E-05
   65.4000015      -4.98336667E-05
   65.5199966      -4.91980645E-05
   65.6399994      -4.85546407E-05
   65.7600021      -4.79042064E-05
   65.8799973      -4.72475185E-05
   66.0000000      -4.65854027E-05
   66.1200027      -4.59187941E-05
   66.2399979      -4.52486966E-05
   66.3600006      -4.45761034E-05
   66.4800034      -4.39019095E-05
   66.5999985      -4.32268753E-05
   66.7200012      -4.25516664E-05
   66.8399963      -4.18768941E-05
   66.9599991      -4.12031877E-05
   67.0800018      -4.05311985E-05
   67.1999969      -3.98615884E-05
   67.3199997      -3.91949798E-05
   67.4400024      -3.85319472E-05
   67.5599976      -3.78730329E-05
   67.6800003      -3.72187824E-05
   67.8000031      -3.65697779E-05
   67.9199982      -3.59266342E-05
   68.0400009      -3.52899515E-05
   68.1600037      -3.46602683E-05
   68.2799988      -3.40379847E-05
   68.4000015      -3.34233919E-05
   68.5199966      -3.28166861E-05
   68.6399994      -3.22180676E-05
   68.7600021      -3.16277583E-05
   68.8799973      -3.10460309E-05
   69.0000000      -3.04731584E-05
   69.1200027      -2.99093554E-05
   69.2399979      -2.93547600E-05
   69.3600006      -2.88094197E-05
   69.4800034      -2.82733417E-05
   69.5999985      -2.77465533E-05
   69.7200012      -2.72291272E-05
   69.8399963      -2.67211781E-05
   69.9599991      -2.62228223E-05
   70.0800018      -2.57341289E-05
   70.1999969      -2.52551054E-05
   70.3199997      -2.47857206E-05
   70.4400024      -2.43259583E-05
   70.5599976      -2.38758548E-05
   70.6800003      -2.34354957E-05
   70.8000031      -2.30049609E-05
   70.9199982      -2.25842341E-05
   71.0400009      -2.21731407E-05
   71.1600037      -2.17713405E-05
   71.2799988      -2.13784060E-05
   71.4000015      -2.09939426E-05
   71.5199966      -2.06177046E-05
   71.6399994      -2.02496431E-05
   71.7600021      -1.98898633E-05
   71.8799973      -1.95385201E-05
   72.0000000      -1.91956642E-05
   72.1200027      -1.88611757E-05
   72.2399979      -1.85347471E-05
   72.3600006      -1.82159638E-05
   72.4800034      -1.79044273E-05
   72.5999985      -1.75998339E-05
   72.7200012      -1.73019998E-05