  -30.0000000       0.00000000    
  -29.8799992       0.00000000    
  -29.7600002       0.00000000    
  -29.6399994       0.00000000    
  -29.5200005       0.00000000    
  -29.3999996       0.00000000    
  -29.2800007      -9.71099836E-43
  -29.1599998      -8.15555706E-42
  -29.0400009      -2.50229867E-41
  -28.9200001      -4.18988241E-43
  -28.7999992       2.81012190E-40
  -28.6800003       1.16642683E-39
  -28.5599995       2.45427197E-39
  -28.4400005       2.00063242E-39
  -28.3199997      -3.94827053E-39
  -28.2000008      -1.19035610E-38
  -28.0799999       1.36082406E-38
  -27.9599991       1.73252148E-37
  -27.8400002       6.28617872E-37
  -27.7199993       1.46881226E-36
  -27.6000004       2.36304355E-36
  -27.4799995       2.05980794E-36
  -27.3600006      -1.88837672E-36
  -27.2399998      -1.24397866E-35
  -27.1200008      -3.06531016E-35
  -27.0000000      -5.15410421E-35
  -26.8799992      -5.98855884E-35
  -26.7600002      -2.97894404E-35
  -26.6399994       6.73261749E-35
  -26.5200005       2.43665079E-34
  -26.3999996       4.68418749E-34
  -26.2800007       6.45640640E-34
  -26.1599998       6.15426394E-34
  -26.0400009       1.95986316E-34
  -25.9200001      -7.29076081E-34
  -25.7999992      -2.09780632E-33
  -25.6800003      -3.57631556E-33
  -25.5599995      -4.54303257E-33
  -25.4400005      -4.19841877E-33
  -25.3199997      -1.80983280E-33
  -25.2000008       2.95329897E-33
  -25.0799999       9.68890933E-33
  -24.9599991       1.70550888E-32
  -24.8400002       2.27913587E-32
  -24.7199993       2.40278921E-32
  -24.6000004       1.78832158E-32
  -24.4799995       2.29706896E-33
  -24.3600006      -2.29985205E-32
  -24.2399998      -5.55144898E-32
  -24.1200008      -8.92646254E-32
  -24.0000000      -1.14573718E-31
  -23.8799992      -1.18857843E-31
  -23.7600002      -8.88078988E-32
  -23.6399994      -1.42074082E-32
  -23.5200005       1.06875535E-31
  -23.3999996       2.62540151E-31
  -23.2800007       4.23004322E-31
  -23.1599998       5.40477491E-31
  -23.0400009       5.55256700E-31
  -22.9200001       4.09212247E-31
  -22.7999992       6.56561673E-32
  -22.6800003      -4.68230010E-31
  -22.5599995      -1.12287029E-30
  -22.4400005      -1.75954784E-30
  -22.3199997      -2.18256519E-30
  -22.2000008      -2.17406476E-30
  -22.0799999      -1.54955781E-30
  -21.9599991      -2.25234592E-31
  -21.8400002       1.71839463E-30
  -21.7199993       3.99612107E-30
  -21.6000004       6.12046393E-30
  -21.4799995       7.46103079E-30
  -21.3600006       7.36395564E-30
  -21.2399998       5.31920936E-30
  -21.1200008       1.14649556E-30
  -21.0000000      -4.84406552E-30
  -20.8799992      -1.17674538E-29
  -20.7600002      -1.82018210E-29
  -20.6399994      -2.23768068E-29
  -20.5200005      -2.25085359E-29
  -20.3999996      -1.72391584E-29
  -20.2800007      -6.10152361E-30
  -20.1599998       1.00969917E-29
  -20.0400009       2.90851954E-29
  -19.9200001       4.72314127E-29
  -19.7999992       5.99976530E-29
  -19.6800003       6.27414953E-29
  -19.5599995       5.17849580E-29
  -19.4400005       2.55849622E-29
  -19.3199997      -1.42386483E-29
  -19.2000008      -6.23133851E-29
  -19.0799999      -1.09658708E-28
  -18.9599991      -1.44784143E-28
  -18.8400002      -1.55791807E-28
  -18.7199993      -1.33282874E-28
  -18.6000004      -7.35701387E-29
  -18.4799995       1.85732125E-29
  -18.3600006       1.28558063E-28
  -18.2399998       2.32900325E-28
  -18.1200008       3.02982075E-28
  -18.0000000       3.11603933E-28
  -17.8799992       2.41424635E-28
  -17.7600002       9.34320195E-29
  -17.6399994      -1.07215015E-28
  -17.5200005      -3.10955280E-28
  -17.3999996      -4.51666828E-28
  -17.2800007      -4.63408982E-28
  -17.1599998      -3.04131807E-28
  -17.0400009       1.90424638E-29
  -16.9200001       4.31586023E-28
  -16.7999992       7.90585864E-28
  -16.6800003       9.09694424E-28
  -16.5599995       6.13014546E-28
  -16.4400005      -1.88766448E-28
  -16.3199997      -1.41858790E-27
  -16.2000008      -2.77874906E-27
  -16.0799999      -3.75586345E-27
  -15.9600000      -3.71255699E-27
  -15.8400002      -2.07385253E-27
  -15.7200003       1.41576757E-27
  -15.6000004       6.42686559E-27
  -15.4799995       1.18667676E-26
  -15.3599997       1.58982466E-26
  -15.2399998       1.62456366E-26
  -15.1199999       1.08174154E-26
  -15.0000000      -1.42703513E-27
  -14.8800001      -1.95627151E-26
  -14.7600002      -4.00454669E-26
  -14.6400003      -5.66852643E-26
  -14.5200005      -6.15645354E-26
  -14.3999996      -4.70352706E-26
  -14.2799997      -8.60672978E-27
  -14.1599998       5.18762204E-26
  -14.0400000       1.23761491E-25
  -13.9200001       1.87056695E-25
  -13.8000002       2.14974630E-25
  -13.6800003       1.80153311E-25
  -13.5600004       6.41256217E-26
  -13.4399996      -1.31750261E-25
  -13.3199997      -3.77073368E-25
  -13.1999998      -6.08993568E-25
  -13.0799999      -7.38628166E-25
  -12.9600000      -6.69770913E-25
  -12.8400002      -3.29221164E-25
  -12.7200003       2.96333898E-25
  -12.6000004       1.12663685E-24
  -12.4799995       1.97062818E-24
  -12.3599997       2.53946139E-24
  -12.2399998       2.49960833E-24
  -12.1199999       1.56673860E-24
  -12.0000000      -3.72577132E-25
  -11.8800001      -3.13982891E-24
  -11.7600002      -6.18573328E-24
  -11.6400003      -8.60020419E-24
  -11.5200005      -9.24943356E-24
  -11.3999996      -7.05345148E-24
  -11.2799997      -1.37667025E-24
  -11.1599998       7.54656685E-24
  -11.0400000       1.82771372E-23
  -10.9200001       2.80806872E-23
  -10.8000002       3.32253036E-23
  -10.6800003       2.97492858E-23
  -10.5600004       1.46639792E-23
  -10.4399996      -1.26020096E-23
  -10.3199997      -4.88785317E-23
  -10.1999998      -8.65368801E-23
  -10.0799999      -1.13892140E-22
  -9.96000004      -1.17107537E-22
  -9.84000015      -8.36723873E-23
  -9.72000027      -7.05246067E-24
  -9.60000038       1.08443573E-22
  -9.47999954       2.44034790E-22
  -9.35999966       3.65784780E-22
  -9.23999977       4.28403726E-22
  -9.11999989       3.84347649E-22
  -9.00000000       1.97730144E-22
  -8.88000011      -1.39148829E-22
  -8.76000023      -5.90621902E-22
  -8.64000034      -1.06910257E-21
  -8.52000046      -1.43870276E-21
  -8.39999962      -1.53524914E-21
  -8.27999973      -1.20376075E-21
  -8.15999985      -3.49638299E-22
  -8.03999996       1.00592110E-21
  -7.92000008       2.68106099E-21
  -7.80000019       4.31685246E-21
  -7.67999983       5.40633576E-21
  -7.55999994       5.37975329E-21
  -7.44000006       3.74474680E-21
  -7.32000017       2.63751491E-22
  -7.19999981      -4.86722968E-21
  -7.07999992      -1.08893659E-20
  -6.96000004      -1.64586566E-20
  -6.84000015      -1.97806737E-20
  -6.71999979      -1.89282899E-20
  -6.59999990      -1.23272772E-20
  -6.48000002       6.58082257E-22
  -6.36000013       1.91612802E-20
  -6.23999977       4.04347629E-20
  -6.11999989       5.98310141E-20
  -6.00000000       7.12875820E-20
  -5.88000011       6.83792731E-20
  -5.76000023       4.58739246E-20
  -5.63999987       1.57269461E-21
  -5.51999998      -6.19363051E-20
  -5.40000010      -1.36091645E-19
  -5.28000021      -2.06242700E-19
  -5.15999985      -2.53010794E-19
  -5.03999996      -2.55304049E-19
  -4.92000008      -1.94815962E-19
  -4.80000019      -6.14278605E-20
  -4.67999983       1.41459090E-19
  -4.55999994       3.92912600E-19
  -4.44000006       6.53091250E-19
  -4.32000017       8.65594156E-19
  -4.19999981       9.64117985E-19
  -4.07999992       8.83243606E-19
  -3.96000004       5.72294057E-19
  -3.83999991       1.03810545E-20
  -3.72000003      -7.79846443E-19
  -3.59999990      -1.72245049E-18
  -3.48000002      -2.68493438E-18
  -3.35999990      -3.48333780E-18
  -3.24000001      -3.89674819E-18
  -3.11999989      -3.69145437E-18
  -3.00000000      -2.65429127E-18
  -2.88000011      -6.34284575E-19
  -2.75999999       2.40872968E-18
  -2.64000010       6.35070934E-18
  -2.51999998       1.08493456E-17
  -2.40000010       1.52970246E-17
  -2.27999997       1.87938926E-17
  -2.16000009       2.01607788E-17
  -2.03999996       1.80178863E-17
  -1.91999996       1.09578659E-17
  -1.79999995      -2.16285190E-18
  -1.67999995      -2.18070684E-17
  -1.55999994      -4.72378893E-17
  -1.44000006      -7.59677447E-17
  -1.32000005      -1.03301855E-16
  -1.20000005      -1.22158999E-16
  -1.08000004      -1.23391564E-16
 -0.959999979      -9.68264075E-17
 -0.839999974      -3.31840510E-17
 -0.720000029       7.31111658E-17
 -0.600000024       2.20450383E-16
 -0.479999989       3.96412002E-16
 -0.360000014       5.74838539E-16
 -0.239999995       7.14749800E-16
 -0.119999997       7.62355064E-16
  -1.11022302E-15   6.57296720E-16
  0.119999997       3.43774807E-16
  0.239999995      -2.13685171E-16
  0.360000014      -1.01132399E-15
  0.479999989      -1.98710880E-15
  0.600000024      -3.00606445E-15
  0.720000029      -3.85559106E-15
  0.839999974      -4.25668149E-15
  0.959999979      -3.89597844E-15
   1.08000004      -2.48104357E-15
   1.20000005       1.83101471E-16
   1.32000005       4.10386997E-15
   1.44000006       9.01174954E-15
   1.55999994       1.42922021E-14
   1.67999995       1.89636023E-14
   1.79999995       2.17264866E-14
   1.91999996       2.11044019E-14
   2.03999996       1.56851223E-14
   2.16000009       4.45261673E-15
   2.27999997      -1.28234910E-14
   2.40000010      -3.52003786E-14
   2.51999998      -6.02594824E-14
   2.64000010      -8.39875722E-14
   2.75999999      -1.00940408E-13
   2.88000011      -1.04768347E-13
   3.00000000      -8.91389962E-14
   3.11999989      -4.90242782E-14
   3.24000001       1.77672648E-14
   3.35999990       1.09026496E-13
   3.48000002       2.16847794E-13
   3.59999990       3.26958133E-13
   3.72000003       4.19036008E-13
   3.83999991       4.68321996E-13
   3.96000004       4.48681402E-13
   4.07999992       3.37054603E-13
   4.19999981       1.18942914E-13
   4.32000017      -2.05740671E-13
   4.44000006      -6.17427225E-13
   4.55999994      -1.07343930E-12
   4.67999983      -1.50758084E-12
   4.80000019      -1.83387550E-12
   4.92000008      -1.95515631E-12
   5.03999996      -1.77656305E-12
   5.15999985      -1.22313303E-12
   5.28000021      -2.59676747E-13
   5.40000010       1.08983482E-12
   5.51999998       2.72692502E-12
   5.63999987       4.47123632E-12
   5.76000023       6.06485868E-12
   5.88000011       7.19119903E-12
   6.00000000       7.50957109E-12
   6.11999989       6.70437013E-12
   6.23999977       4.54491176E-12
   6.36000013       9.49100932E-13
   6.48000002      -3.95843341E-12
   6.59999990      -9.80482275E-12
   6.71999979      -1.59554592E-11
   6.84000015      -2.15384550E-11
   6.96000004      -2.55135600E-11
   7.07999992      -2.67866857E-11
   7.19999981      -2.43642311E-11
   7.32000017      -1.75336568E-11
   7.44000006      -6.04929518E-12
   7.55999994       9.70379419E-12
   7.67999983       2.85983372E-11
   7.80000019       4.87357134E-11
   7.92000008       6.75238615E-11
   8.03999996       8.18767693E-11
   8.15999985       8.85355816E-11
   8.27999973       8.44932319E-11
   8.39999962       6.74856768E-11
   8.52000046       3.64946580E-11
   8.64000034      -7.80667284E-12
   8.76000023      -6.27407085E-11
   8.88000011      -1.23517876E-10
   9.00000000      -1.83394147E-10
   9.11999989      -2.34128883E-10
   9.23999977      -2.66744515E-10
   9.35999966      -2.72548734E-10
   9.47999954      -2.44337606E-10
   9.60000038      -1.77657639E-10
   9.72000027      -7.19745930E-11
   9.84000015       6.84193605E-11
   9.96000004       2.33925990E-10
   10.0799999       4.09729778E-10
   10.1999998       5.76549475E-10
   10.3199997       7.12080561E-10
   10.4399996       7.93077881E-10
   10.5600004       7.97940880E-10
   10.6800003       7.09581616E-10
   10.8000002       5.18289078E-10
   10.9200001       2.24258001E-10
   11.0400000      -1.60560801E-10
   11.1599998      -6.11605544E-10
   11.2799997      -1.09209708E-09
   11.3999996      -1.55483304E-09
   11.5200005      -1.94540517E-09
   11.6400003      -2.20671681E-09
   11.7600002      -2.28452390E-09
   11.8800001      -2.13358553E-09
   12.0000000      -1.72389525E-09
   12.1199999      -1.04639075E-09
   12.2399998      -1.17514928E-10
   12.3599997       1.01796827E-09
   12.4799995       2.28640729E-09
   12.6000004       3.58731578E-09
   12.7200003       4.79821916E-09
   12.8400002       5.78226311E-09
   12.9600000       6.39830056E-09
   13.0799999       6.51295506E-09
   13.1999998       6.01391825E-09
   13.3199997       4.82356599E-09
   13.4399996       2.91182789E-09
   13.5600004       3.07167070E-10
   13.6800003      -2.89548052E-09
   13.8000002      -6.53088028E-09
   13.9200001      -1.03647118E-08
   14.0400000      -1.41004888E-08
   14.1599998      -1.73925194E-08
   14.2799997      -1.98648795E-08
   14.3999996      -2.11358504E-08
   14.5200005      -2.08468549E-08
   14.6400003      -1.86943900E-08
   14.7600002      -1.44630707E-08
   14.8800001      -8.05748268E-09
   15.0000000       4.69624617E-10
   15.1199999       1.08953797E-08
   15.2399998       2.28134613E-08
   15.3599997       3.56314978E-08
   15.4799995       4.85807341E-08
   15.6000004       6.07387491E-08
   15.7200003       7.10653083E-08
   15.8400002       7.84504337E-08
   15.9600000       8.17730097E-08
   16.0799999       7.99676769E-08
   16.2000008       7.20970661E-08
   16.3199997       5.74265400E-08
   16.4400005       3.54984770E-08
   16.5599995       6.20376728E-09
   16.6800003      -3.01513765E-08
   16.7999992      -7.27842888E-08
   16.9200001      -1.20380733E-07
   17.0400009      -1.71045599E-07
   17.1599998      -2.22259104E-07
   17.2800007      -2.70838683E-07
   17.3999996      -3.12907389E-07
   17.5200005      -3.43871733E-07
   17.6399994      -3.58413160E-07
   17.7600002      -3.50500557E-07
   17.8799992      -3.13432764E-07
   18.0000000      -2.39922542E-07
   18.1200008      -1.22234113E-07
   18.2399998       4.76134936E-08
   18.3600006       2.77566954E-07
   18.4799995       5.75176500E-07
   18.6000004       9.47148976E-07
   18.7199993       1.39882377E-06
   18.8400002       1.93358369E-06
   18.9599991       2.55222767E-06
   19.0799999       3.25233827E-06
   19.2000008       4.02768501E-06
   19.3199997       4.86771523E-06
   19.4400005       5.75718423E-06
   19.5599995       6.67597760E-06
   19.6800003       7.59917702E-06
   19.7999992       8.49740445E-06
   19.9200001       9.33747833E-06
   20.0400009       1.00833886E-05
   20.1599998       1.06975685E-05
   20.2800007       1.11424451E-05
   20.3999996       1.13821952E-05
   20.5200005       1.13846345E-05
   20.6399994       1.11231375E-05
   20.7600002       1.05784866E-05
   20.8799992       9.74050636E-06
   21.0000000       8.60940327E-06
   21.1200008       7.19666832E-06
   21.2399998       5.52547772E-06
   21.3600006       3.63051072E-06
   21.4799995       1.55716305E-06
   21.6000004      -6.39845553E-07
   21.7199993      -2.89842569E-06
   21.8400002      -5.15155625E-06
   21.9599991      -7.33008847E-06
   22.0799999      -9.36577180E-06
   22.2000008      -1.11943491E-05
   22.3199997      -1.27585190E-05
   22.4400005      -1.40106413E-05
   22.5599995      -1.49149664E-05
   22.6800003      -1.54493009E-05
   22.7999992      -1.56059814E-05
   22.9200001      -1.53920992E-05
   23.0400009      -1.48289728E-05
   23.1599998      -1.39508711E-05
   23.2800007      -1.28030979E-05
   23.3999996      -1.14395425E-05
   23.5200005      -9.91984052E-06
   23.6399994      -8.30633144E-06
   23.7600002      -6.66099595E-06
   23.8799992      -5.04255513E-06
   24.0000000      -3.50389200E-06
   24.1200008      -2.08994629E-06
   24.2399998      -8.36181641E-07
   24.3600006       2.32309446E-07
   24.4799995       1.10104804E-06
   24.6000004       1.76578499E-06
   24.7199993       2.23156053E-06
   24.8400002       2.51131428E-06
   24.9599991       2.62417507E-06
   25.0799999       2.59357398E-06
   25.2000008       2.44533635E-06
   25.3199997       2.20588140E-06
   25.4400005       1.90066157E-06
   25.5599995       1.55292514E-06
   25.6800003       1.18286425E-06
   25.7999992       8.07171546E-07
   25.9200001       4.38987200E-07
   26.0400009       8.81896369E-08
   26.1599998      -2.38046411E-07
   26.2800007      -5.34520439E-07
   26.3999996      -7.97210191E-07
   26.5200005      -1.02251602E-06
   26.6399994      -1.20663992E-06
   26.7600002      -1.34517802E-06
   26.8799992      -1.43297621E-06
   27.0000000      -1.46427453E-06
   27.1200008      -1.43312548E-06
   27.2399998      -1.33404876E-06
   27.3600006      -1.16285310E-06
   27.4799995      -9.17536113E-07
   27.6000004      -5.99161751E-07
   27.7199993      -2.12609763E-07
   27.8400002       2.32900362E-07
   27.9599991       7.23593075E-07
   28.0799999       1.24128644E-06
   28.2000008       1.76393519E-06
   28.3199997       2.26656130E-06
   28.4400005       2.72253055E-06
   28.5599995       3.10509881E-06
   28.6800003       3.38913151E-06
   28.7999992       3.55286420E-06
   28.9200001       3.57957924E-06
   29.0400009       3.45905505E-06
   29.1599998       3.18867205E-06
   29.2800007       2.77406593E-06
   29.3999996       2.22925837E-06
   29.5200005       1.57623276E-06
   29.6399994       8.43955036E-07
   29.7600002       6.68944580E-08
   29.8799992      -7.16873330E-07
   30.0000000      -1.46785794E-06
   30.1200008      -2.14749571E-06
   30.2399998      -2.72048374E-06
   30.3600006      -3.15694410E-06
   30.4799995      -3.43426996E-06
   30.6000004      -3.53852101E-06
   30.7199993      -3.46528100E-06
   30.8400002      -3.21990547E-06
   30.9599991      -2.81715916E-06
   31.0799999      -2.28026192E-06
   31.2000008      -1.63941945E-06
   31.3199997      -9.29941791E-07
   31.4400005      -1.90084307E-07
   31.5599995       5.41242287E-07
   31.6800003       1.22673725E-06
   31.7999992       1.83280360E-06
   31.9200001       2.33134210E-06
   32.0400009       2.70113674E-06
   32.1599998       2.92876825E-06
   32.2799988       3.00900751E-06
   32.4000015       2.94470397E-06
   32.5200005       2.74619583E-06
   32.6399994       2.43031172E-06
   32.7599983       2.01905709E-06
   32.8800011       1.53808924E-06
   33.0000000       1.01508988E-06
   33.1199989       4.78153254E-07
   33.2400017      -4.57174849E-08
   33.3600006      -5.31919056E-07
   33.4799995      -9.59301701E-07
   33.5999985      -1.31093066E-06
   33.7200012      -1.57454258E-06
   33.8400002      -1.74270508E-06
   33.9599991      -1.81271184E-06
   34.0800018      -1.78625385E-06
   34.2000008      -1.66892289E-06
   34.3199997      -1.46960281E-06
   34.4399986      -1.19980325E-06
   34.5600014      -8.72988210E-07
   34.6800003      -5.03934018E-07
   34.7999992      -1.08146970E-07
   34.9199982       2.98647677E-07
   35.0400009       7.00942621E-07
   35.1599998       1.08382085E-06
   35.2799988       1.43327804E-06
   35.4000015       1.73651495E-06
   35.5200005       1.98221892E-06
   35.6399994       2.16084959E-06
   35.7599983       2.26493671E-06
   35.8800011       2.28939143E-06
   36.0000000       2.23182201E-06
   36.1199989       2.09282916E-06
   36.2400017       1.87626131E-06
   36.3600006       1.58938406E-06
   36.4799995       1.24293706E-06
   36.5999985       8.51033064E-07
   36.7200012       4.30871154E-07
   36.8400002       2.24244046E-09
   36.9599991      -4.13181453E-07
   37.0800018      -7.92767537E-07
   37.2000008      -1.11402130E-06
   37.3199997      -1.35582070E-06
   37.4399986      -1.49972072E-06
   37.5600014      -1.53124824E-06
   37.6800003      -1.44110038E-06
   37.7999992      -1.22615154E-06
   37.9199982      -8.90179251E-07
   38.0400009      -4.44230295E-07
   38.1599998       9.34361637E-08
   38.2799988       6.97863697E-07
   38.4000015       1.33837978E-06
   38.5200005       1.98001544E-06
   38.6399994       2.58530281E-06
   38.7599983       3.11635495E-06
   38.8800011       3.53711084E-06
   39.0000000       3.81559857E-06
   39.1199989       3.92607126E-06
   39.2400017       3.85086287E-06
   39.3600006       3.58182160E-06
   39.4799995       3.12121642E-06
   39.5999985       2.48202946E-06
   39.7200012       1.68759607E-06
   39.8400002       7.70601901E-07
   39.9599991      -2.28512761E-07
   40.0800018      -1.26364728E-06
   40.2000008      -2.28550130E-06
   40.3199997      -3.24424400E-06
   40.4399986      -4.09222184E-06
   40.5600014      -4.78653146E-06
   40.6800003      -5.29129375E-06
   40.7999992      -5.57949852E-06
   40.9199982      -5.63431331E-06
   41.0400009      -5.44979275E-06
   41.1599998      -5.03097590E-06
   41.2799988      -4.39339192E-06
   41.4000015      -3.56203645E-06
   41.5200005      -2.56991711E-06
   41.6399994      -1.45628189E-06
   41.7599983      -2.64655853E-07
   41.8800011       9.59189379E-07
   42.0000000       2.16921262E-06
   42.1199989       3.32093396E-06
   42.2400017       4.37304152E-06
   42.3600006       5.28872806E-06
   42.4799995       6.03673334E-06
   42.5999985       6.59209809E-06
   42.7200012       6.93664197E-06
   42.8400002       7.05920593E-06
   42.9599991       6.95569361E-06
   43.0800018       6.62894763E-06
   43.2000008       6.08849405E-06
   43.3199997       5.35017807E-06
   43.4399986       4.43570116E-06
   43.5600014       3.37205461E-06
   43.6800003       2.19085337E-06
   43.7999992       9.27550104E-07
   43.9199982      -3.79479502E-07
   44.0400009      -1.68998531E-06
   44.1599998      -2.96302028E-06
   44.2799988      -4.15823115E-06
   44.4000015      -5.23723111E-06
   44.5200005      -6.16500438E-06
   44.6399994      -6.91128616E-06
   44.7599983      -7.45184389E-06
   44.8800011      -7.76958859E-06
   45.0000000      -7.85543943E-06
   45.1199989      -7.70886891E-06
   45.2400017      -7.33810111E-06
   45.3600006      -6.75988713E-06
   45.4799995      -5.99888790E-06
   45.5999985      -5.08665607E-06
   45.7200012      -4.06026447E-06
   45.8400002      -2.96064059E-06
   45.9599991      -1.83070006E-06
   46.0800018      -7.13363647E-07
   46.2000008       3.50422681E-07
   46.3199997       1.32356297E-06
   46.4399986       2.17447428E-06
   46.5600014       2.87844705E-06
   46.6800003       3.41862642E-06
   46.7999992       3.78656409E-06
   46.9199982       3.98231577E-06
   47.0400009       4.01407397E-06
   47.1599998       3.89738034E-06
   47.2799988       3.65395067E-06
   47.4000015       3.31019487E-06
   47.5200005       2.89552463E-06
   47.6399994       2.44054172E-06
   47.7599983       1.97522172E-06
   47.8800011       1.52719906E-06
   48.0000000       1.12025089E-06
   48.1199989       7.73072429E-07
   48.2400017       4.98406962E-07
   48.3600006       3.02580162E-07
   48.4799995       1.85457850E-07
   48.5999985       1.40819864E-07
   48.7200012       1.57116048E-07
   48.8400002       2.18546987E-07
   48.9599991       3.06390547E-07
   49.0800018       4.00480815E-07
   49.2000008       4.80737469E-07
   49.3199997       5.28642602E-07
   49.4399986       5.28568080E-07
   49.5600014       4.68869587E-07
   49.6800003       3.42681830E-07
   49.7999992       1.48372365E-07
   49.9199982      -1.10363395E-07
   50.0400009      -4.24759236E-07
   50.1599998      -7.81556025E-07
   50.2799988      -1.16385092E-06
   50.4000015      -1.55215457E-06
   50.5200005      -1.92557900E-06
   50.6399994      -2.26308407E-06
   50.7599983      -2.54470297E-06
   50.8800011      -2.75268053E-06
   51.0000000      -2.87246735E-06
   51.1199989      -2.89352124E-06
   51.2400017      -2.80988752E-06
   51.3600006      -2.62053936E-06
   51.4799995      -2.32947241E-06
   51.5999985      -1.94556219E-06
   51.7200012      -1.48219533E-06
   51.8400002      -9.56701570E-07
   51.9599991      -3.89609312E-07
   52.0800018       1.96239114E-07
   52.2000008       7.76679826E-07
   52.3199997       1.32728746E-06
   52.4399986       1.82446354E-06
   52.5600014       2.24650853E-06
   52.6800003       2.57463648E-06
   52.7999992       2.79388337E-06
   52.9199982       2.89387140E-06
   53.0400009       2.86938507E-06
   53.1599998       2.72072862E-06
   53.2799988       2.45383239E-06
   53.4000015       2.08010056E-06
   53.5200005       1.61598791E-06
   53.6399994       1.08232427E-06
   53.7599983       5.03404976E-07
   53.8800011      -9.41085077E-08
   54.0000000      -6.82427299E-07
   54.1199989      -1.23395284E-06
   54.2400017      -1.72260457E-06
   54.3600006      -2.12508849E-06
   54.4799995      -2.42204237E-06
   54.5999985      -2.59899298E-06
   54.7200012      -2.64708183E-06
   54.8400002      -2.56351746E-06
   54.9599991      -2.35173434E-06
   55.0800018      -2.02125057E-06
   55.2000008      -1.58723242E-06
   55.3199997      -1.06978791E-06
   55.4399986      -4.93021105E-07
   55.5600014       1.16107394E-07
   55.6800003       7.29063743E-07
   55.7999992       1.31710874E-06
   55.9199982       1.85268959E-06
   56.0400009       2.31079048E-06
   56.1599998       2.67017708E-06
   56.2799988       2.91447145E-06
   56.4000015       3.03300203E-06
   56.5200005       3.02137028E-06
   56.6399994       2.88170327E-06
   56.7599983       2.62255890E-06
   56.8800011       2.25847953E-06
   57.0000000       1.80920904E-06
   57.1199989       1.29859950E-06
   57.2400017       7.53269831E-07
   57.3600006       2.01086522E-07
   57.4799995      -3.30444237E-07
   57.5999985      -8.15771728E-07
   57.7200012      -1.23278096E-06
   57.8400002      -1.56405770E-06
   57.9599991      -1.79785081E-06
   58.0800018      -1.92866219E-06
   58.2000008      -1.95741973E-06
   58.3199997      -1.89121965E-06
   58.4399986      -1.74265506E-06
   58.5600014      -1.52877772E-06
   58.6800003      -1.26977216E-06
   58.7999992      -9.87440217E-07
   58.9199982      -7.03609487E-07
   59.0400009      -4.38590121E-07
   59.1599998      -2.09792930E-07
   59.2799988      -3.06162420E-08
   59.4000015       9.03179966E-08
   59.5200005       1.49525306E-07
   59.6399994       1.48599625E-07
   59.7599983       9.37521349E-08
   59.8800011      -4.99774444E-09
   60.0000000      -1.34894478E-07
   60.1199989      -2.81674517E-07
   60.2400017      -4.30830454E-07
   60.3600006      -5.68792302E-07
   60.4799995      -6.83918643E-07
   60.5999985      -7.67214374E-07
   60.7200012      -8.12724011E-07
   60.8400002      -8.17586056E-07
   60.9599991      -7.81773792E-07
   61.0800018      -7.07580682E-07
   61.2000008      -5.98935799E-07
   61.3199997      -4.60652046E-07
   61.4399986      -2.97711466E-07
   61.5600014      -1.14684440E-07
   61.6800003       8.46435881E-08
   61.7999992       2.97393711E-07
   61.9199982       5.21456002E-07
   62.0400009       7.55121448E-07
   62.1599998       9.96544941E-07
   62.2799988       1.24312589E-06
   62.4000015       1.49090636E-06
   62.5200005       1.73408637E-06
   62.6399994       1.96474707E-06
   62.7599983       2.17284651E-06
   62.8800011       2.34652180E-06
   63.0000000       2.47269622E-06
   63.1199989       2.53795383E-06
   63.2400017       2.52960785E-06
   63.3600006       2.43686782E-06
   63.4799995       2.25198755E-06
   63.5999985       1.97128452E-06
   63.7200012       1.59590945E-06
   63.8400002       1.13228646E-06
   63.9599991       5.92155516E-07
   64.0800018      -7.80412979E-09
   64.1999969      -6.46755666E-07
   64.3199997      -1.30083686E-06
   64.4400024      -1.94455356E-06
   64.5599976      -2.55231953E-06
   64.6800003      -3.10000928E-06
   64.8000031      -3.56639430E-06
   64.9199982      -3.93433720E-06
   65.0400009      -4.19164780E-06
   65.1600037      -4.33153446E-06
   65.2799988      -4.35262837E-06
   65.4000015      -4.25859616E-06
   65.5199966      -4.05740138E-06
   65.6399994      -3.76031062E-06
   65.7600021      -3.38074824E-06
   65.8799973      -2.93313610E-06
   66.0000000      -2.43183649E-06
   66.1200027      -1.89029913E-06
   66.2399979      -1.32049377E-06
   66.3600006      -7.32666592E-07
   66.4800034      -1.35420123E-07
   66.5999985       4.63919321E-07
   66.7200012       1.05872175E-06
   66.8399963       1.64235666E-06
   66.9599991       2.20749303E-06
   67.0800018       2.74550530E-06
   67.1999969       3.24608982E-06
   67.3199997       3.69716349E-06
   67.4400024       4.08509504E-06
   67.5599976       4.39527230E-06
   67.6800003       4.61297668E-06
   67.8000031       4.72448983E-06
   67.9199982       4.71833800E-06
   68.0400009       4.58654767E-06
   68.1600037       4.32578418E-06
   68.2799988       3.93824621E-06
   68.4000015       3.43219881E-06
   68.5199966       2.82206861E-06
   68.6399994       2.12805185E-06
   68.7600021       1.37524034E-06
   68.8799973       5.92305469E-07
   69.0000000      -1.90162680E-07
   69.1200027      -9.41534040E-07
   69.2399979      -1.63307914E-06
   69.3600006      -2.23980510E-06
   69.4800034      -2.74202375E-06
   69.5999985      -3.12650968E-06
   69.7200012      -3.38714131E-06
   69.8399963      -3.52497091E-06
   69.9599991      -3.54771237E-06
   70.0800018      -3.46870502E-06
   70.1999969      -3.30544708E-06
   70.3199997      -3.07784762E-06
   70.4400024      -2.80636186E-06
   70.5599976      -2.51018764E-06
   70.6800003      -2.20569268E-06
   70.8000031      -1.90521610E-06
   70.9199982      -1.61634807E-06
   71.0400009      -1.34174161E-06
   71.1600037      -1.07946073E-06
   71.2799988      -8.23811888E-07
   71.4000015      -5.66562903E-07
   71.5199966      -2.98419394E-07
   71.6399994      -1.06030704E-08
   71.7600021       3.03624319E-07
   71.8799973       6.47641855E-07
   72.0000000       1.02047977E-06
   72.1200027       1.41625321E-06
   72.2399979       1.82407064E-06
   72.3600006       2.22842641E-06
   72.4800034       2.61004425E-06
   72.5999985       2.94710844E-06
   72.7200012       3.21677885E-06