  -30.0000000       0.00000000    
  -29.8799992       0.00000000    
  -29.7600002       0.00000000    
  -29.6399994       0.00000000    
  -29.5200005       4.34402524E-44
  -29.3999996       5.50570167E-42
  -29.2800007      -7.10458321E-43
  -29.1599998      -1.17200400E-40
  -29.0400009      -2.07728484E-40
  -28.9200001       1.23638105E-39
  -28.7999992       7.16185568E-39
  -28.6800003       1.54075415E-38
  -28.5599995       3.07288218E-39
  -28.4400005      -8.16876346E-38
  -28.3199997      -2.77314051E-37
  -28.2000008      -4.78780772E-37
  -28.0799999      -2.73451938E-37
  -27.9599991       1.03043462E-36
  -27.8400002       3.83756252E-36
  -27.7199993       7.02453656E-36
  -27.6000004       6.63811001E-36
  -27.4799995      -3.77184023E-36
  -27.3600006      -2.90195519E-35
  -27.2399998      -6.37470299E-35
  -27.1200008      -8.32259127E-35
  -27.0000000      -4.28142593E-35
  -26.8799992       1.02449602E-34
  -26.7600002       3.53810552E-34
  -26.6399994       6.14940033E-34
  -26.5200005       6.66905746E-34
  -26.3999996       2.22560960E-34
  -26.2800007      -9.09765588E-34
  -26.1599998      -2.58552756E-33
  -26.0400009      -4.12342370E-33
  -25.9200001      -4.32162490E-33
  -25.7999992      -1.84140951E-33
  -25.6800003       4.03538872E-33
  -25.5599995       1.25020657E-32
  -25.4400005       2.06255016E-32
  -25.3199997       2.35727789E-32
  -25.2000008       1.60141239E-32
  -25.0799999      -5.38969046E-33
  -24.9599991      -3.90956843E-32
  -24.8400002      -7.65831690E-32
  -24.7199993      -1.02453313E-31
  -24.6000004      -9.77850198E-32
  -24.4799995      -4.68407139E-32
  -24.3600006       5.42665674E-32
  -24.2399998       1.89918275E-31
  -24.1200008       3.22290882E-31
  -24.0000000       3.97065347E-31
  -23.8799992       3.58517995E-31
  -23.7600002       1.70859315E-31
  -23.6399994      -1.61449588E-31
  -23.5200005      -5.83405793E-31
  -23.3999996      -9.95511872E-31
  -23.2800007      -1.27547588E-30
  -23.1599998      -1.30679256E-30
  -23.0400009      -1.00165623E-30
  -22.9200001      -3.10627321E-31
  -22.7999992       7.75343520E-31
  -22.6800003       2.21119478E-30
  -22.5599995       3.85113955E-30
  -22.4400005       5.36789853E-30
  -22.3199997       6.17654009E-30
  -22.2000008       5.44324753E-30
  -22.0799999       2.27143764E-30
  -21.9599991      -3.88827576E-30
  -21.8400002      -1.26677846E-29
  -21.7199993      -2.22574397E-29
  -21.6000004      -2.92451048E-29
  -21.4799995      -2.91344059E-29
  -21.3600006      -1.76936734E-29
  -21.2399998       7.03359772E-30
  -21.1200008       4.26167822E-29
  -21.0000000       8.08983322E-29
  -20.8799992       1.08371187E-28
  -20.7600002       1.08927950E-28
  -20.6399994       6.89663897E-29
  -20.5200005      -1.60961085E-29
  -20.3999996      -1.35792674E-28
  -20.2800007      -2.61578649E-28
  -20.1599998      -3.49277290E-28
  -20.0400009      -3.48510722E-28
  -19.9200001      -2.18710843E-28
  -19.7999992       5.12862927E-29
  -19.6800003       4.25694796E-28
  -19.5599995       8.13658216E-28
  -19.4400005       1.07776301E-27
  -19.3199997       1.06352673E-27
  -19.2000008       6.48482760E-28
  -19.0799999      -1.98252604E-28
  -18.9599991      -1.36289521E-27
  -18.8400002      -2.56254840E-27
  -18.7199993      -3.37110155E-27
  -18.6000004      -3.30881043E-27
  -18.4799995      -1.99214746E-27
  -18.3600006       6.82486450E-28
  -18.2399998       4.37151854E-27
  -18.1200008       8.20085314E-27
  -18.0000000       1.08349506E-26
  -17.8799992       1.07443734E-26
  -17.7600002       6.66855092E-27
  -17.6399994      -1.80078629E-27
  -17.5200005      -1.36684619E-26
  -17.3999996      -2.62309625E-26
  -17.2800007      -3.52448693E-26
  -17.1599998      -3.57331773E-26
  -17.0400009      -2.34420372E-26
  -16.9200001       3.26919328E-27
  -16.7999992       4.15829784E-26
  -16.6800003       8.31151615E-26
  -16.5599995       1.14298636E-25
  -16.4400005       1.18834968E-25
  -16.3199997       8.23137713E-26
  -16.2000008      -1.64094816E-27
  -16.0799999      -1.25201322E-25
  -15.9600000      -2.62375827E-25
  -15.8400002      -3.69756486E-25
  -15.7200003      -3.93952107E-25
  -15.6000004      -2.86201744E-25
  -15.4799995      -2.22931814E-26
  -15.3599997       3.76901594E-25
  -15.2399998       8.31402892E-25
  -15.1199999       1.20276439E-24
  -15.0000000       1.31609846E-24
  -14.8800001       1.00570270E-24
  -14.7600002       1.79108280E-25
  -14.6400003      -1.11462851E-24
  -14.5200005      -2.63473567E-24
  -14.3999996      -3.94305142E-24
  -14.2799997      -4.46595142E-24
  -14.1599998      -3.63394890E-24
  -14.0400000      -1.08641451E-24
  -13.9200001       3.09997408E-24
  -13.8000002       8.22832253E-24
  -13.6800003       1.29301623E-23
  -13.5600004       1.53261648E-23
  -13.4399996       1.34432406E-23
  -13.3199997       5.86358102E-24
  -13.1999998      -7.51127479E-24
  -13.0799999      -2.47933476E-23
  -12.9600000      -4.18160304E-23
  -12.8400002      -5.24948215E-23
  -12.7200003      -5.00235538E-23
  -12.6000004      -2.88859154E-23
  -12.4799995       1.26268532E-23
  -12.3599997       7.00172934E-23
  -12.2399998       1.31175654E-22
  -12.1199999       1.76906690E-22
  -12.0000000       1.84109243E-22
  -11.8800001       1.31767665E-22
  -11.7600002       9.04493320E-24
  -11.6400003      -1.76260670E-22
  -11.5200005      -3.91550265E-22
  -11.3999996      -5.78660650E-22
  -11.2799997      -6.61251029E-22
  -11.1599998      -5.61656595E-22
  -11.0400000      -2.26020186E-22
  -10.9200001       3.46743849E-22
  -10.8000002       1.07987712E-21
  -10.6800003       1.80756755E-21
  -10.5600004       2.28761403E-21
  -10.4399996       2.24478946E-21
  -10.3199997       1.44492398E-21
  -10.1999998      -2.10140693E-22
  -10.0799999      -2.58770490E-21
  -9.96000004      -5.25986097E-21
  -9.84000015      -7.50399026E-21
  -9.72000027      -8.39729847E-21
  -9.60000038      -7.01798045E-21
  -9.47999954      -2.73772811E-21
  -9.35999966       4.44506303E-21
  -9.23999977       1.36172040E-20
  -9.11999989       2.28175526E-20
  -9.00000000       2.91693352E-20
  -8.88000011       2.93557126E-20
  -8.76000023       2.04454878E-20
  -8.64000034       9.72040112E-22
  -8.52000046      -2.79507592E-20
  -8.39999962      -6.17981401E-20
  -8.27999973      -9.24669858E-20
  -8.15999985      -1.09114997E-19
  -8.03999996      -1.00198662E-19
  -7.92000008      -5.66298575E-20
  -7.80000019       2.43967034E-20
  -7.67999983       1.35744022E-19
  -7.55999994       2.57994686E-19
  -7.44000006       3.59697861E-19
  -7.32000017       4.01256604E-19
  -7.19999981       3.42908137E-19
  -7.07999992       1.56261087E-19
  -6.96000004      -1.62397849E-19
  -6.84000015      -5.80084238E-19
  -6.71999979      -1.02037547E-18
  -6.59999990      -1.36613893E-18
  -6.48000002      -1.47502661E-18
  -6.36000013      -1.20883937E-18
  -6.23999977      -4.74460098E-19
  -6.11999989       7.30138058E-19
  -6.00000000       2.27542911E-18
  -5.88000011       3.87897622E-18
  -5.76000023       5.11718039E-18
  -5.63999987       5.48094589E-18
  -5.51999998       4.47868175E-18
  -5.40000010       1.77866331E-18
  -5.28000021      -2.63113332E-18
  -5.15999985      -8.30137204E-18
  -5.03999996      -1.42434794E-17
  -4.92000008      -1.89630907E-17
  -4.80000019      -2.06426082E-17
  -4.67999983      -1.74870548E-17
  -4.55999994      -8.21045083E-18
  -4.44000006       7.40598377E-18
  -4.32000017       2.79994119E-17
  -4.19999981       5.03064911E-17
  -4.07999992       6.92035712E-17
  -3.96000004       7.82446817E-17
  -3.83999991       7.07658109E-17
  -3.72000003       4.15078338E-17
  -3.59999990      -1.14395423E-17
  -3.48000002      -8.47324909E-17
  -3.35999990      -1.68402220E-16
  -3.24000001      -2.45582486E-16
  -3.11999989      -2.93854046E-16
  -3.00000000      -2.88534547E-16
  -2.88000011      -2.07893305E-16
  -2.75999999      -3.97904712E-17
  -2.64000010       2.11310355E-16
  -2.51999998       5.18518366E-16
  -2.40000010       8.29780210E-16
  -2.27999997       1.07014323E-15
  -2.16000009       1.15048959E-15
  -2.03999996       9.83252680E-16
  -1.91999996       5.04167669E-16
  -1.79999995      -3.02689527E-16
  -1.67999995      -1.38118749E-15
  -1.55999994      -2.58687589E-15
  -1.44000006      -3.68497703E-15
  -1.32000005      -4.36881341E-15
  -1.20000005      -4.30254409E-15
  -1.08000004      -3.18798976E-15
 -0.959999979      -8.49665737E-16
 -0.839999974       2.67436529E-15
 -0.720000029       7.05442581E-15
 -0.600000024       1.16269655E-14
 -0.479999989       1.54119796E-14
 -0.360000014       1.72097732E-14
 -0.239999995       1.57864715E-14
 -0.119999997       1.01412375E-14
  -1.11022302E-15  -1.72901196E-16
  0.119999997      -1.47257305E-14
  0.239999995      -3.19554597E-14
  0.360000014      -4.90669110E-14
  0.479999989      -6.21643443E-14
  0.600000024      -6.66805952E-14
  0.720000029      -5.81228858E-14
  0.839999974      -3.30937602E-14
  0.959999979       9.52958229E-15
   1.08000004       6.74533468E-14
   1.20000005       1.34124157E-13
   1.32000005       1.98480772E-13
   1.44000006       2.45580520E-13
   1.55999994       2.58298455E-13
   1.67999995       2.20144256E-13
   1.79999995       1.19023010E-13
   1.91999996      -4.84978878E-14
   2.03999996      -2.73119689E-13
   2.16000009      -5.29863913E-13
   2.27999997      -7.77274458E-13
   2.40000010      -9.59732185E-13
   2.51999998      -1.01355751E-12
   2.64000010      -8.77049030E-13
   2.75999999      -5.03859487E-13
   2.88000011       1.21772763E-13
   3.00000000       9.70325925E-13
   3.11999989       1.95595818E-12
   3.24000001       2.93264328E-12
   3.35999990       3.70081223E-12
   3.48000002       4.02694458E-12
   3.59999990       3.67688475E-12
   3.72000003       2.46128140E-12
   3.83999991       2.88656306E-13
   3.96000004      -2.78136889E-12
   4.07999992      -6.49474658E-12
   4.19999981      -1.03811673E-11
   4.32000017      -1.37651904E-11
   4.44000006      -1.58195262E-11
   4.55999994      -1.56649468E-11
   4.67999983      -1.25142154E-11
   4.80000019      -5.84858247E-12
   4.92000008       4.39418424E-12
   5.03999996       1.76501955E-11
   5.15999985       3.26144667E-11
   5.28000021       4.72187359E-11
   5.40000010       5.87359675E-11
   5.51999998       6.40341322E-11
   5.63999987       5.99831435E-11
   5.76000023       4.39938884E-11
   5.88000011       1.46394268E-11
   6.00000000      -2.77204440E-11
   6.11999989      -8.04143557E-11
   6.23999977      -1.38151823E-10
   6.36000013      -1.93049382E-10
   6.48000002      -2.35087561E-10
   6.59999990      -2.53053745E-10
   6.71999979      -2.35965358E-10
   6.84000015      -1.74889520E-10
   6.96000004      -6.49900342E-11
   7.07999992       9.24510538E-11
   7.19999981       2.88355395E-10
   7.32000017       5.04868203E-10
   7.44000006       7.15421000E-10
   7.55999994       8.86120011E-10
   7.67999983       9.78621406E-10
   7.80000019       9.54479829E-10
   7.92000008       7.80738751E-10
   8.03999996       4.36291697E-10
   8.15999985      -8.16883228E-11
   8.27999973      -7.52137685E-10
   8.39999962      -1.52631052E-09
   8.52000046      -2.32680075E-09
   8.64000034      -3.05023118E-09
   8.76000023      -3.57417673E-09
   8.88000011      -3.76845755E-09
   9.00000000      -3.51039109E-09
   9.11999989      -2.70298495E-09
   9.23999977      -1.29442357E-09
   9.35999966       7.03317293E-10
   9.47999954       3.19929261E-09
   9.60000038       6.01454220E-09
   9.72000027       8.88171581E-09
   9.84000015       1.14554011E-08
   9.96000004       1.33343514E-08
   10.0799999       1.40956438E-08
   10.1999998       1.33394158E-08
   10.3199997       1.07413420E-08
   10.4399996       6.10854300E-09
   10.5600004      -5.66612646E-10
   10.6800003      -9.06121311E-09
   10.8000002      -1.88917380E-08
   10.9200001      -2.93055695E-08
   11.0400000      -3.92993620E-08
   11.1599998      -4.76676973E-08
   11.2799997      -5.30830100E-08
   11.3999996      -5.42047367E-08
   11.5200005      -4.98124564E-08
   11.6400003      -3.89544574E-08
   11.7600002      -2.11003375E-08
   11.8800001       3.71607212E-09
   12.0000000       3.47784841E-08
   12.1199999       7.06098078E-08
   12.2399998       1.08947717E-07
   12.3599997       1.46785524E-07
   12.4799995       1.80486012E-07
   12.6000004       2.05971062E-07
   12.7200003       2.18983757E-07
   12.8400002       2.15414047E-07
   12.9600000       1.91672754E-07
   13.0799999       1.45093125E-07
   13.1999998       7.43350199E-08
   13.3199997      -2.02364507E-08
   13.4399996      -1.36227087E-07
   13.5600004      -2.68972911E-07
   13.6800003      -4.11408479E-07
   13.8000002      -5.54064627E-07
   13.9200001      -6.85210864E-07
   14.0400000      -7.91147670E-07
   14.1599998      -8.56648455E-07
   14.2799997      -8.65538880E-07
   14.3999996      -8.01394663E-07
   14.5200005      -6.48330683E-07
   14.6400003      -3.91847607E-07
   14.7600002      -1.96970742E-08
   14.8800001       4.77275364E-07
   15.0000000       1.10435201E-06
   15.1199999       1.86227032E-06
   15.2399998       2.74669355E-06
   15.3599997       3.74785554E-06
   15.4799995       4.85040709E-06
   15.6000004       6.03348190E-06
   15.7200003       7.27098768E-06
   15.8400002       8.53212987E-06
   15.9600000       9.78215758E-06
   16.0799999       1.09833027E-05
   16.2000008       1.20959085E-05
   16.3199997       1.30796961E-05
   16.4400005       1.38951400E-05
   16.5599995       1.45048998E-05
   16.6800003       1.48752588E-05
   16.7999992       1.49775260E-05
   16.9200001       1.47893315E-05
   17.0400009       1.42957770E-05
   17.1599998       1.34903757E-05
   17.2800007       1.23757409E-05
   17.3999996       1.09639859E-05
   17.5200005       9.27679230E-06
   17.6399994       7.34513242E-06
   17.7600002       5.20863750E-06
   17.8799992       2.91461083E-06
   18.0000000       5.16711964E-07
   18.1200008      -1.92665311E-06
   18.2399998      -4.35418860E-06
   18.3600006      -6.70374084E-06
   18.4799995      -8.91443688E-06
   18.6000004      -1.09288376E-05
   18.7199993      -1.26950190E-05
   18.8400002      -1.41684905E-05
   18.9599991      -1.53138608E-05
   19.0799999      -1.61061871E-05
   19.2000008      -1.65319034E-05
   19.3199997      -1.65893398E-05
   19.4400005      -1.62887463E-05
   19.5599995      -1.56518508E-05
   19.6800003      -1.47109449E-05
   19.7999992      -1.35075625E-05
   19.9200001      -1.20907735E-05
   20.0400009      -1.05152021E-05
   20.1599998      -8.83883513E-06
   20.2800007      -7.12073552E-06
   20.3999996      -5.41874488E-06
   20.5200005      -3.78729146E-06
   20.6399994      -2.27539022E-06
   20.7600002      -9.24916776E-07
   20.8799992       2.30768677E-07
   21.0000000       1.16780086E-06
   21.1200008       1.87235628E-06
   21.2399998       2.34075151E-06
   21.3600006       2.57910324E-06
   21.4799995       2.60257048E-06
   21.6000004       2.43422687E-06
   21.7199993       2.10361986E-06
   21.8400002       1.64509277E-06
   21.9599991       1.09595180E-06
   22.0799999       4.94573044E-07
   22.2000008      -1.21461170E-07
   22.3199997      -7.17099567E-07
   22.4400005      -1.26135149E-06
   22.5599995      -1.72853277E-06
   22.6800003      -2.09917107E-06
   22.7999992      -2.36053552E-06
   22.9200001      -2.50677203E-06
   23.0400009      -2.53865846E-06
   23.1599998      -2.46300692E-06
   23.2800007      -2.29177476E-06
   23.3999996      -2.04094840E-06
   23.5200005      -1.72928947E-06
   23.6399994      -1.37703091E-06
   23.7600002      -1.00461205E-06
   23.8799992      -6.31532032E-07
   24.0000000      -2.75388345E-07
   24.1200008       4.88523604E-08
   24.2399998       3.29327435E-07
   24.3600006       5.57492172E-07
   24.4799995       7.28094108E-07
   24.6000004       8.38946448E-07
   24.7199993       8.90550041E-07
   24.8400002       8.85624047E-07
   24.9599991       8.28604357E-07
   25.0799999       7.25164114E-07
   25.2000008       5.81801828E-07
   25.3199997       4.05525299E-07
   25.4400005       2.03645229E-07
   25.5599995      -1.63264016E-08
   25.6800003      -2.46693276E-07
   25.7999992      -4.79540688E-07
   25.9200001      -7.06691083E-07
   26.0400009      -9.19692525E-07
   26.1599998      -1.10988060E-06
   26.2800007      -1.26854377E-06
   26.3999996      -1.38720850E-06
   26.5200005      -1.45804370E-06
   26.6399994      -1.47436685E-06
   26.7600002      -1.43121122E-06
   26.8799992      -1.32590731E-06
   27.0000000      -1.15861212E-06
   27.1200008      -9.32723708E-07
   27.2399998      -6.55118583E-07
   27.3600006      -3.36158195E-07
   27.4799995       1.05676108E-08
   27.6000004       3.68774209E-07
   27.7199993       7.20279161E-07
   27.8400002       1.04602316E-06
   27.9599991       1.32725233E-06
   28.0799999       1.54677923E-06
   28.2000008       1.69022564E-06
   28.3199997       1.74714876E-06
   28.4400005       1.71195325E-06
   28.5599995       1.58450757E-06
   28.6800003       1.37040342E-06
   28.7999992       1.08082145E-06
   28.9200001       7.32002945E-07
   29.0400009       3.44350582E-07
   29.1599998      -5.87815094E-08
   29.2800007      -4.52528411E-07
   29.3999996      -8.12084977E-07
   29.5200005      -1.11429529E-06
   29.6399994      -1.33914853E-06
   29.7600002      -1.47107517E-06
   29.8799992      -1.49995333E-06
   30.0000000      -1.42175588E-06
   30.1200008      -1.23879477E-06
   30.2399998      -9.59551926E-07
   30.3600006      -5.98112820E-07
   30.4799995      -1.73246946E-07
   30.6000004       2.92791555E-07
   30.7199993       7.75658577E-07
   30.8400002       1.25040776E-06
   30.9599991       1.69296982E-06
   31.0799999       2.08152483E-06
   31.2000008       2.39768156E-06
   31.3199997       2.62739354E-06
   31.4400005       2.76156925E-06
   31.5599995       2.79635219E-06
   31.6800003       2.73307069E-06
   31.7999992       2.57788884E-06
   31.9200001       2.34119602E-06
   32.0400009       2.03679429E-06
   32.1599998       1.68094914E-06
   32.2799988       1.29137186E-06
   32.4000015       8.86195949E-07
   32.5200005       4.83010638E-07
   32.6399994       9.79977557E-08
   32.7599983      -2.54787921E-07
   32.8800011      -5.63968911E-07
   33.0000000      -8.21209255E-07
   33.1199989      -1.02138813E-06
   33.2400017      -1.16258525E-06
   33.3600006      -1.24589326E-06
   33.4799995      -1.27507121E-06
   33.5999985      -1.25607323E-06
   33.7200012      -1.19647689E-06
   33.8400002      -1.10485644E-06
   33.9599991      -9.90136414E-07
   34.0800018      -8.60971795E-07
   34.2000008      -7.25193786E-07
   34.3199997      -5.89358933E-07
   34.4399986      -4.58430577E-07
   34.5600014      -3.35611190E-07
   34.6800003      -2.22332702E-07
   34.7999992      -1.18398098E-07
   34.9199982      -2.22557990E-08
   35.0400009       6.86234642E-08
   35.1599998       1.57304981E-07
   35.2799988       2.46925197E-07
   35.4000015       3.40245919E-07
   35.5200005       4.39265534E-07
   35.6399994       5.44917270E-07
   35.7599983       6.56875784E-07
   35.8800011       7.73480508E-07
   36.0000000       8.91775699E-07
   36.1199989       1.00765465E-06
   36.2400017       1.11609165E-06
   36.3600006       1.21143728E-06
   36.4799995       1.28775514E-06
   36.5999985       1.33917263E-06
   36.7200012       1.36022891E-06
   36.8400002       1.34619972E-06
   36.9599991       1.29338730E-06
   37.0800018       1.19936510E-06
   37.2000008       1.06317134E-06
   37.3199997       8.85445445E-07
   37.4399986       6.68505663E-07
   37.5600014       4.16361956E-07
   37.6800003       1.34662727E-07
   37.7999992      -1.69429455E-07
   37.9199982      -4.87434193E-07
   38.0400009      -8.09823121E-07
   38.1599998      -1.12635826E-06
   38.2799988      -1.42649276E-06
   38.4000015      -1.69981797E-06
   38.5200005      -1.93653955E-06
   38.6399994      -2.12795203E-06
   38.7599983      -2.26688667E-06
   38.8800011      -2.34809568E-06
   39.0000000      -2.36853862E-06
   39.1199989      -2.32754655E-06
   39.2400017      -2.22683980E-06
   39.3600006      -2.07038715E-06
   39.4799995      -1.86411489E-06
   39.5999985      -1.61547950E-06
   39.7200012      -1.33294157E-06
   39.8400002      -1.02538627E-06
   39.9599991      -7.01545900E-07
   40.0800018      -3.69482763E-07
   40.2000008      -3.61879664E-08
   40.3199997       2.92660360E-07
   40.4399986       6.12752103E-07
   40.5600014       9.21007597E-07
   40.6800003       1.21526443E-06
   40.7999992       1.49382993E-06
   40.9199982       1.75495700E-06
   41.0400009       1.99631904E-06
   41.1599998       2.21455389E-06
   41.2799988       2.40495797E-06
   41.4000015       2.56138196E-06
   41.5200005       2.67636483E-06
   41.6399994       2.74152308E-06
   41.7599983       2.74816875E-06
   41.8800011       2.68811095E-06
   42.0000000       2.55457189E-06
   42.1199989       2.34312233E-06
   42.2400017       2.05254423E-06
   42.3600006       1.68552140E-06
   42.4799995       1.24907274E-06
   42.5999985       7.54667610E-07
   42.7200012       2.17982276E-07
   42.8400002      -3.41703071E-07
   42.9599991      -9.02440547E-07
   43.0800018      -1.44082117E-06
   43.2000008      -1.93336541E-06
   43.3199997      -2.35798757E-06
   43.4399986      -2.69541988E-06
   43.5600014      -2.93047742E-06
   43.6800003      -3.05305684E-06
   43.7999992      -3.05878962E-06
   43.9199982      -2.94929441E-06
   44.0400009      -2.73200908E-06
   44.1599998      -2.41962653E-06
   44.2799988      -2.02918432E-06
   44.4000015      -1.58089972E-06
   44.5200005      -1.09684902E-06
   44.6399994      -5.99614907E-07
   44.7599983      -1.11007395E-07
   44.8800011       3.49039709E-07
   45.0000000       7.63327250E-07
   45.1199989       1.11796408E-06
   45.2400017       1.40265138E-06
   45.3600006       1.61070659E-06
   45.4799995       1.73888373E-06
   45.5999985       1.78705932E-06
   45.7200012       1.75786397E-06
   45.8400002       1.65632343E-06
   45.9599991       1.48956212E-06
   46.0800018       1.26658836E-06
   46.2000008       9.98155087E-07
   46.3199997       6.96661118E-07
   46.4399986       3.76033881E-07
   46.5600014       5.15286480E-08
   46.6800003      -2.60622528E-07
   46.7999992      -5.43761018E-07
   46.9199982      -7.81570861E-07
   47.0400009      -9.59051135E-07
   47.1599998      -1.06363370E-06
   47.2799988      -1.08635072E-06
   47.4000015      -1.02292540E-06
   47.5200005      -8.74646275E-07
   47.6399994      -6.48883315E-07
   47.7599983      -3.59130667E-07
   47.8800011      -2.44981191E-08
   48.0000000       3.31367659E-07
   48.1199989       6.81888025E-07
   48.2400017       9.99570489E-07
   48.3600006       1.25827103E-06
   48.4799995       1.43548471E-06
   48.5999985       1.51443146E-06
   48.7200012       1.48571041E-06
   48.8400002       1.34832760E-06
   48.9599991       1.10996632E-06
   49.0800018       7.86446037E-07
   49.2000008       4.00404616E-07
   49.3199997      -2.06732942E-08
   49.4399986      -4.46882865E-07
   49.5600014      -8.48529737E-07
   49.6800003      -1.19868878E-06
   49.7999992      -1.47542630E-06
   49.9199982      -1.66345831E-06
   50.0400009      -1.75508899E-06
   50.1599998      -1.75035666E-06
   50.2799988      -1.65640824E-06
   50.4000015      -1.48621029E-06
   50.5200005      -1.25677718E-06
   50.6399994      -9.87144858E-07
   50.7599983      -6.96336940E-07
   50.8800011      -4.01556832E-07
   51.0000000      -1.16801310E-07
   51.1199989       1.47973878E-07
   51.2400017       3.87078472E-07
   51.3600006       5.98724114E-07
   51.4799995       7.84167071E-07
   51.5999985       9.46508408E-07
   51.7200012       1.08934046E-06
   51.8400002       1.21544053E-06
   51.9599991       1.32569801E-06
   52.0800018       1.41842906E-06
   52.2000008       1.48917570E-06
   52.3199997       1.53102383E-06
   52.4399986       1.53540634E-06
   52.5600014       1.49329014E-06
   52.6800003       1.39659949E-06
   52.7999992       1.23968891E-06
   52.9199982       1.02067042E-06
   53.0400009       7.42411373E-07
   53.1599998       4.13050373E-07
   53.2799988       4.59389895E-08
   53.4000015      -3.41024958E-07
   53.5200005      -7.26629253E-07
   53.6399994      -1.08803658E-06
   53.7599983      -1.40276404E-06
   53.8800011      -1.65074800E-06
   54.0000000      -1.81627547E-06
   54.1199989      -1.88956403E-06
   54.2400017      -1.86781415E-06
   54.3600006      -1.75560490E-06
   54.4799995      -1.56457384E-06
   54.5999985      -1.31239790E-06
   54.7200012      -1.02116530E-06
   54.8400002      -7.15295187E-07
   54.9599991      -4.19209186E-07
   55.0800018      -1.54991582E-07
   55.2000008       5.97282863E-08
   55.3199997       2.13451585E-07
   55.4399986       3.01871353E-07
   55.5600014       3.28206426E-07
   55.6800003       3.02768569E-07
   55.7999992       2.41800620E-07
   55.9199982       1.65697827E-07
   56.0400009       9.67894209E-08
   56.1599998       5.69032004E-08
   56.2799988       6.49617462E-08
   56.4000015       1.34858070E-07
   56.5200005       2.73832370E-07
   56.6399994       4.81521170E-07
   56.7599983       7.49781748E-07
   56.8800011       1.06331231E-06
   57.0000000       1.40100508E-06
   57.1199989       1.73788681E-06
   57.2400017       2.04744379E-06
   57.3600006       2.30408045E-06
   57.4799995       2.48545371E-06
   57.5999985       2.57443958E-06
   57.7200012       2.56053272E-06
   57.8400002       2.44055354E-06
   57.9599991       2.21861251E-06
   58.0800018       1.90537151E-06
   58.2000008       1.51672691E-06
   58.3199997       1.07209064E-06
   58.4399986       5.92498736E-07
   58.5600014       9.87747626E-08
   58.6800003      -3.90034756E-07
   58.7999992      -8.57790099E-07
   58.9199982      -1.29185094E-06
   59.0400009      -1.68311453E-06
   59.1599998      -2.02555566E-06
   59.2799988      -2.31539957E-06
   59.4000015      -2.55010355E-06
   59.5200005      -2.72735269E-06
   59.6399994      -2.84426142E-06
   59.7599983      -2.89694299E-06
   59.8800011      -2.88054525E-06
   60.0000000      -2.78977654E-06
   60.1199989      -2.61986293E-06
   60.2400017      -2.36780397E-06
   60.3600006      -2.03373907E-06
   60.4799995      -1.62219953E-06
   60.5999985      -1.14303111E-06
   60.7200012      -6.11795144E-07
   60.8400002      -4.95226793E-08
   60.9599991       5.18226443E-07
   61.0800018       1.06295477E-06
   61.2000008       1.55533814E-06
   61.3199997       1.96764768E-06
   61.4399986       2.27622695E-06
   61.5600014       2.46374702E-06
   61.6800003       2.52097220E-06
   61.7999992       2.44782382E-06
   61.9199982       2.25359145E-06
   62.0400009       1.95624648E-06
   62.1599998       1.58089892E-06
   62.2799988       1.15754665E-06
   62.4000015       7.18339152E-07
   62.5200005       2.94637118E-07
   62.6399994      -8.58280842E-08
   62.7599983      -4.01396989E-07
   62.8800011      -6.38273207E-07
   63.0000000      -7.91478726E-07
   63.1199989      -8.64878757E-07
   63.2400017      -8.70282975E-07
   63.3600006      -8.25729273E-07
   63.4799995      -7.53145457E-07
   63.5999985      -6.75650654E-07
   63.7200012      -6.14796193E-07
   63.8400002      -5.88051705E-07
   63.9599991      -6.06809238E-07
   64.0800018      -6.75120589E-07
   64.1999969      -7.89293779E-07
   64.3199997      -9.38378435E-07
   64.4400024      -1.10546409E-06
   64.5599976      -1.26962777E-06
   64.6800003      -1.40829434E-06
   64.8000031      -1.49973664E-06
   64.9199982      -1.52543385E-06
   65.0400009      -1.47203957E-06
   65.1600037      -1.33276478E-06
   65.2799988      -1.10806059E-06
   65.4000015      -8.05570778E-07
   65.5199966      -4.39407103E-07
   65.6399994      -2.88689197E-08
   65.7600021       4.03224902E-07
   65.8799973       8.32399508E-07
   66.0000000       1.23439474E-06
   66.1200027       1.58688022E-06
   66.2399979       1.87088665E-06
   66.3600006       2.07187827E-06
   66.4800034       2.18042851E-06
   66.5999985       2.19251046E-06
   66.7200012       2.10943381E-06
   66.8399963       1.93748542E-06
   66.9599991       1.68733095E-06
   67.0800018       1.37324139E-06
   67.1999969       1.01219393E-06
   67.3199997       6.22897289E-07
   67.4400024       2.24778816E-07
   67.5599976      -1.63027579E-07
   67.6800003      -5.22657672E-07
   67.8000031      -8.38419282E-07
   67.9199982      -1.09758059E-06
   68.0400009      -1.29100397E-06
   68.1600037      -1.41358805E-06
   68.2799988      -1.46448212E-06
   68.4000015      -1.44705314E-06
   68.5199966      -1.36858910E-06
   68.6399994      -1.23974871E-06
   68.7600021      -1.07377366E-06
   68.8799973      -8.85505358E-07
   69.0000000      -6.90264017E-07
   69.1200027      -5.02661635E-07
   69.2399979      -3.35437306E-07
   69.3600006      -1.98410788E-07
   69.4800034      -9.76495329E-08
   69.5999985      -3.49414293E-08
   69.7200012      -7.64355246E-09
   69.8399963      -8.95157370E-09
   69.9599991      -2.85950179E-08
   70.0800018      -5.39198624E-08
   70.1999969      -7.12738668E-08
   70.3199997      -6.75690686E-08
   70.4400024      -3.18653619E-08
   70.5599976       4.31944400E-08
   70.6800003       1.60261891E-07
   70.8000031       3.16610368E-07
   70.9199982       5.04004902E-07
   71.0400009       7.09150754E-07
   71.1600037       9.14692123E-07
   71.2799988       1.10067344E-06
   71.4000015       1.24632322E-06
   71.5199966       1.33198682E-06
   71.6399994       1.34102208E-06
   71.7600021       1.26147359E-06
   71.8799973       1.08737288E-06
   72.0000000       8.19546642E-07
   72.1200027       4.65869078E-07
   72.2399979       4.09465883E-08
   72.3600006      -4.34728321E-07
   72.4800034      -9.36072695E-07
   72.5999985      -1.43504576E-06
   72.7200012      -1.90248738E-06