  -30.0000000       0.00000000    
  -29.8799992       0.00000000    
  -29.7600002       0.00000000    
  -29.6399994       0.00000000    
  -29.5200005       0.00000000    
  -29.3999996       4.20389539E-44
  -29.2800007      -4.13383047E-43
  -29.1599998      -1.39457223E-41
  -29.0400009      -4.65118986E-41
  -28.9200001       3.43260671E-40
  -28.7999992       3.95786662E-39
  -28.6800003       1.99405248E-38
  -28.5599995       6.56643920E-38
  -28.4400005       1.51811586E-37
  -28.3199997       2.27364510E-37
  -28.2000008       7.60804957E-38
  -28.0799999      -7.81463751E-37
  -27.9599991      -3.01926090E-36
  -27.8400002      -7.02461764E-36
  -27.7199993      -1.18318787E-35
  -27.6000004      -1.36857604E-35
  -27.4799995      -5.18994782E-36
  -27.3600006       2.31693538E-35
  -27.2399998       7.71233751E-35
  -27.1200008       1.47838389E-34
  -27.0000000       1.99801989E-34
  -26.8799992       1.66942112E-34
  -26.7600002      -2.89141018E-35
  -26.6399994      -4.26416040E-34
  -26.5200005      -9.46539459E-34
  -26.3999996      -1.32612201E-33
  -26.2800007      -1.13328272E-33
  -26.1599998       6.12976280E-35
  -26.0400009       2.33957777E-33
  -25.9200001       5.02610968E-33
  -25.7999992       6.47522239E-33
  -25.6800003       4.40017731E-33
  -25.5599995      -3.02513343E-33
  -25.4400005      -1.54403475E-32
  -25.3199997      -2.86608651E-32
  -25.2000008      -3.43189425E-32
  -25.0799999      -2.19801839E-32
  -24.9599991       1.58436934E-32
  -24.8400002       7.69004525E-32
  -24.7199993       1.43517340E-31
  -24.6000004       1.82026370E-31
  -24.4799995       1.50703571E-31
  -24.3600006       1.68686187E-32
  -24.2399998      -2.20692740E-31
  -24.1200008      -5.12476228E-31
  -24.0000000      -7.53254899E-31
  -23.8799992      -8.00830165E-31
  -23.7600002      -5.21393246E-31
  -23.6399994       1.46362918E-31
  -23.5200005       1.12792981E-30
  -23.3999996       2.17810922E-30
  -23.2800007       2.90201024E-30
  -23.1599998       2.84772252E-30
  -23.0400009       1.66367076E-30
  -22.9200001      -7.15632450E-31
  -22.7999992      -3.91832215E-30
  -22.6800003      -7.09347157E-30
  -22.5599995      -9.04093432E-30
  -22.4400005      -8.53141601E-30
  -22.3199997      -4.76712988E-30
  -22.2000008       2.14234184E-30
  -22.0799999       1.08700126E-29
  -21.9599991       1.89135634E-29
  -21.8400002       2.31091612E-29
  -21.7199993       2.05968172E-29
  -21.6000004       1.00313054E-29
  -21.4799995      -7.34387481E-30
  -21.3600006      -2.72366337E-29
  -21.2399998      -4.28818684E-29
  -21.1200008      -4.68299375E-29
  -21.0000000      -3.37129102E-29
  -20.8799992      -3.26422180E-30
  -20.7600002       3.75392124E-29
  -20.6399994       7.44714438E-29
  -20.5200005       8.91249480E-29
  -20.3999996       6.51409512E-29
  -20.2800007      -3.57604302E-30
  -20.1599998      -1.05213360E-28
  -20.0400009      -2.06503048E-28
  -19.9200001      -2.56788284E-28
  -19.7999992      -2.01752838E-28
  -19.6800003      -5.83718295E-30
  -19.5599995       3.21747157E-28
  -19.4400005       7.06553496E-28
  -19.3199997       1.00547535E-27
  -19.2000008       1.03068221E-27
  -19.0799999       6.05306637E-28
  -18.9599991      -3.55415518E-28
  -18.8400002      -1.75739162E-27
  -18.7199993      -3.26762865E-27
  -18.6000004      -4.31921337E-27
  -18.4799995      -4.21356378E-27
  -18.3600006      -2.33041048E-27
  -18.2399998       1.58094370E-27
  -18.1200008       7.10101618E-27
  -18.0000000       1.29429241E-26
  -17.8799992       1.69895525E-26
  -17.7600002       1.66734581E-26
  -17.6399994       9.73213000E-27
  -17.5200005      -4.75572770E-27
  -17.3999996      -2.53034207E-26
  -17.2800007      -4.73107557E-26
  -17.1599998      -6.31766898E-26
  -17.0400009      -6.36124184E-26
  -16.9200001      -4.02794289E-26
  -16.7999992       1.05599779E-26
  -16.6800003       8.42358124E-26
  -16.5599995       1.65061367E-25
  -16.4400005       2.26518525E-25
  -16.3199997       2.35598782E-25
  -16.2000008       1.61795359E-25
  -16.0799999      -1.02463286E-26
  -15.9600000      -2.67278228E-25
  -15.8400002      -5.57791960E-25
  -15.7200003      -7.91640111E-25
  -15.6000004      -8.53730515E-25
  -15.4799995      -6.33786924E-25
  -15.3599997      -6.92585855E-26
  -15.2399998       8.07791743E-25
  -15.1199999       1.83496344E-24
  -15.0000000       2.71348272E-24
  -14.8800001       3.04871567E-24
  -14.7600002       2.44550707E-24
  -14.6400003       6.50913982E-25
  -14.5200005      -2.28379393E-24
  -14.3999996      -5.87064566E-24
  -14.2799997      -9.14397311E-24
  -14.1599998      -1.07704016E-23
  -14.0400000      -9.34437060E-24
  -13.9200001      -3.85450297E-24
  -13.8000002       5.76174618E-24
  -13.6800003       1.81289623E-23
  -13.5600004       3.02151997E-23
  -13.4399996       3.75924438E-23
  -13.3199997       3.53163245E-23
  -13.1999998       1.94152616E-23
  -13.0799999      -1.12390299E-23
  -12.9600000      -5.31499200E-23
  -12.8400002      -9.71672352E-23
  -12.7200003      -1.28930543E-22
  -12.6000004      -1.31335799E-22
  -12.4799995      -8.91398939E-23
  -12.3599997       4.86405599E-24
  -12.2399998       1.43476166E-22
  -12.1199999       3.00616589E-22
  -12.0000000       4.31183091E-22
  -11.8800001       4.77344808E-22
  -11.7600002       3.82182485E-22
  -11.6400003       1.09523012E-22
  -11.5200005      -3.33820717E-22
  -11.3999996      -8.79783726E-22
  -11.2799997      -1.39278777E-21
  -11.1599998      -1.68324419E-21
  -11.0400000      -1.54558920E-21
  -10.9200001      -8.19649402E-22
  -10.8000002       5.34188837E-22
  -10.6800003       2.36454728E-21
  -10.5600004       4.28893148E-21
  -10.4399996       5.71131862E-21
  -10.3199997       5.91853262E-21
  -10.1999998       4.26034164E-21
  -10.0799999       3.93094438E-22
  -9.96000004      -5.46330217E-21
  -9.84000015      -1.23326280E-20
  -9.72000027      -1.84461018E-20
  -9.60000038      -2.14465347E-20
  -9.47999954      -1.88776510E-20
  -9.35999966      -8.93210547E-21
  -9.23999977       8.66309729E-21
  -9.11999989       3.18441271E-20
  -9.00000000       5.57846534E-20
  -8.88000011       7.31545351E-20
  -8.76000023       7.52930167E-20
  -8.64000034       5.43423606E-20
  -8.52000046       6.10669238E-21
  -8.39999962      -6.69320624E-20
  -8.27999973      -1.53313390E-19
  -8.15999985      -2.32053578E-19
  -8.03999996      -2.74819540E-19
  -7.92000008      -2.51374217E-19
  -7.80000019      -1.38085822E-19
  -7.67999983       7.17370771E-20
  -7.55999994       3.58030963E-19
  -7.44000006       6.67909829E-19
  -7.32000017       9.16864258E-19
  -7.19999981       1.00010561E-18
  -7.07999992       8.15152786E-19
  -6.96000004       2.93875791E-19
  -6.84000015      -5.61392386E-19
  -6.71999979      -1.64663008E-18
  -6.59999990      -2.74120851E-18
  -6.48000002      -3.52087484E-18
  -6.36000013      -3.60710470E-18
  -6.23999977      -2.65434442E-18
  -6.11999989      -4.66335633E-19
  -6.00000000       2.87950236E-18
  -5.88000011       6.93201590E-18
  -5.76000023       1.08299242E-17
  -5.63999987       1.33671204E-17
  -5.51999998       1.31851523E-17
  -5.40000010       9.09335281E-18
  -5.28000021       4.81498681E-19
  -5.15999985      -1.22507699E-17
  -5.03999996      -2.73601552E-17
  -4.92000008      -4.16547940E-17
  -4.80000019      -5.07445660E-17
  -4.67999983      -4.97288775E-17
  -4.55999994      -3.43198493E-17
  -4.44000006      -2.28073175E-18
  -4.32000017       4.50744315E-17
  -4.19999981       1.01694623E-16
  -4.07999992       1.56363976E-16
  -3.96000004       1.93459533E-16
  -3.83999991       1.95185693E-16
  -3.72000003       1.45312234E-16
  -3.59999990       3.40675526E-17
  -3.48000002      -1.36594015E-16
  -3.35999990      -3.48535900E-16
  -3.24000001      -5.65241762E-16
  -3.11999989      -7.33328621E-16
  -3.00000000      -7.88870477E-16
  -2.88000011      -6.68879049E-16
  -2.75999999      -3.27166926E-16
  -2.64000010       2.47527935E-16
  -2.51999998       1.01462170E-15
  -2.40000010       1.87044166E-15
  -2.27999997       2.64745929E-15
  -2.16000009       3.12812846E-15
  -2.03999996       3.07559315E-15
  -1.91999996       2.28049454E-15
  -1.79999995       6.19196649E-16
  -1.67999995      -1.88545617E-15
  -1.55999994      -5.01339955E-15
  -1.44000006      -8.32129657E-15
  -1.32000005      -1.11555027E-14
  -1.20000005      -1.27147921E-14
  -1.08000004      -1.21666254E-14
 -0.959999979      -8.81068425E-15
 -0.839999974      -2.27153230E-15
 -0.720000029       7.30951148E-15
 -0.600000024       1.91225209E-14
 -0.479999989       3.16204548E-14
 -0.360000014       4.25740342E-14
 -0.239999995       4.92776698E-14
 -0.119999997       4.89129882E-14
  -1.11022302E-15   3.90479986E-14
  0.119999997       1.82178593E-14
  0.239999995      -1.34972422E-14
  0.360000014      -5.40041712E-14
  0.479999989      -9.89546512E-14
  0.600000024      -1.41834068E-13
  0.720000029      -1.74454689E-13
  0.839999974      -1.87874144E-13
  0.959999979      -1.73691655E-13
   1.08000004      -1.25599021E-13
   1.20000005      -4.09927117E-14
   1.32000005       7.75995750E-14
   1.44000006       2.21548054E-13
   1.55999994       3.75859256E-13
   1.67999995       5.19818455E-13
   1.79999995       6.28630286E-13
   1.91999996       6.76022552E-13
   2.03999996       6.37630844E-13
   2.16000009       4.94845538E-13
   2.27999997       2.38688789E-13
   2.40000010      -1.26775530E-13
   2.51999998      -5.81999835E-13
   2.64000010      -1.09092564E-12
   2.75999999      -1.60170325E-12
   2.88000011      -2.04933596E-12
   3.00000000      -2.36025370E-12
   3.11999989      -2.45864743E-12
   3.24000001      -2.27425262E-12
   3.35999990      -1.75114025E-12
   3.48000002      -8.56994543E-13
   3.59999990       4.07721843E-13
   3.72000003       2.00140533E-12
   3.83999991       3.83453599E-12
   3.96000004       5.76543934E-12
   4.07999992       7.59971079E-12
   4.19999981       9.09460701E-12
   4.32000017       9.96981404E-12
   4.44000006       9.92596023E-12
   4.55999994       8.67191128E-12
   4.67999983       5.96119421E-12
   4.80000019       1.63674315E-12
   4.92000008      -4.31844534E-12
   5.03999996      -1.17291073E-11
   5.15999985      -2.01805187E-11
   5.28000021      -2.89848614E-11
   5.40000010      -3.71712036E-11
   5.51999998      -4.35095640E-11
   5.63999987      -4.65785049E-11
   5.76000023      -4.48828023E-11
   5.88000011      -3.70227182E-11
   6.00000000      -2.19096009E-11
   6.11999989       9.86137279E-13
   6.23999977       3.13775846E-11
   6.36000013       6.79263937E-11
   6.48000002       1.08069304E-10
   6.59999990       1.47948806E-10
   6.71999979       1.82489968E-10
   6.84000015       2.05658046E-10
   6.96000004       2.10918588E-10
   7.07999992       1.91900787E-10
   7.19999981       1.43239628E-10
   7.32000017       6.15415843E-11
   7.44000006      -5.36114070E-11
   7.55999994      -1.98733627E-10
   7.67999983      -3.65717567E-10
   7.80000019      -5.41470646E-10
   7.92000008      -7.08045123E-10
   8.03999996      -8.43375147E-10
   8.15999985      -9.22691423E-10
   8.27999973      -9.20619581E-10
   8.39999962      -8.13891510E-10
   8.52000046      -5.84509940E-10
   8.64000034      -2.23116262E-10
   8.76000023       2.67766115E-10
   8.88000011       8.71003270E-10
   9.00000000       1.55305235E-09
   9.11999989       2.26349761E-09
   9.23999977       2.93626101E-09
   9.35999966       3.49271811E-09
   9.47999954       3.84678822E-09
   9.60000038       3.91186861E-09
   9.72000027       3.60926999E-09
   9.84000015       2.87757729E-09
   9.96000004       1.68218128E-09
   10.0799999       2.40526054E-11
   10.1999998      -2.05321560E-09
   10.3199997      -4.45906423E-09
   10.4399996      -7.05515779E-09
   10.5600004      -9.65870939E-09
   10.6800003      -1.20502008E-08
   10.8000002      -1.39853862E-08
   10.9200001      -1.52110022E-08
   11.0400000      -1.54832289E-08
   11.1599998      -1.45875996E-08
   11.2799997      -1.23588038E-08
   11.3999996      -8.69879990E-09
   11.5200005      -3.59173424E-09
   11.6400003       2.88550983E-09
   11.7600002       1.05578994E-08
   11.8800001       1.91521465E-08
   12.0000000       2.83015140E-08
   12.1199999       3.75546243E-08
   12.2399998       4.63869512E-08
   12.3599997       5.42136718E-08
   12.4799995       6.04025558E-08
   12.6000004       6.42864606E-08
   12.7200003       6.51755130E-08
   12.8400002       6.23704892E-08
   12.9600000       5.51800170E-08
   13.0799999       4.29454943E-08
   13.1999998       2.50785188E-08
   13.3199997       1.11588128E-09
   13.4399996      -2.92028943E-08
   13.5600004      -6.58321540E-08
   13.6800003      -1.08289498E-07
   13.8000002      -1.55500061E-07
   13.9200001      -2.05621660E-07
   14.0400000      -2.55861892E-07
   14.1599998      -3.02302283E-07
   14.2799997      -3.39749874E-07
   14.3999996      -3.61639110E-07
   14.5200005      -3.60008983E-07
   14.6400003      -3.25580032E-07
   14.7600002      -2.47952983E-07
   14.8800001      -1.15944268E-07
   15.0000000       8.19333081E-08
   15.1199999       3.56848915E-07
   15.2399998       7.18906449E-07
   15.3599997       1.17630213E-06
   15.4799995       1.73442788E-06
   15.6000004       2.39497695E-06
   15.7200003       3.15511375E-06
   15.8400002       4.00677663E-06
   15.9600000       4.93618199E-06
   16.0799999       5.92359493E-06
   16.2000008       6.94341588E-06
   16.3199997       7.96462245E-06
   16.4400005       8.95157609E-06
   16.5599995       9.86518899E-06
   16.6800003       1.06644202E-05
   16.7999992       1.13080305E-05
   16.9200001       1.17565132E-05
   17.0400009       1.19741226E-05
   17.1599998       1.19308406E-05
   17.2800007       1.16042083E-05
   17.3999996       1.09808789E-05
   17.5200005       1.00577972E-05
   17.6399994       8.84291967E-06
   17.7600002       7.35541062E-06
   17.8799992       5.62530204E-06
   18.0000000       3.69259647E-06
   18.1200008       1.60587001E-06
   18.2399998      -5.79557309E-07
   18.3600006      -2.80379754E-06
   18.4799995      -5.00479155E-06
   18.6000004      -7.12080100E-06
   18.7199993      -9.09287428E-06
   18.8400002      -1.08671384E-05
   18.9599991      -1.23968330E-05
   19.0799999      -1.36439621E-05
   19.2000008      -1.45805179E-05
   19.3199997      -1.51892336E-05
   19.4400005      -1.54638365E-05
   19.5599995      -1.54088375E-05
   19.6800003      -1.50388969E-05
   19.7999992      -1.43778052E-05
   19.9200001      -1.34571828E-05
   20.0400009      -1.23149666E-05
   20.1599998      -1.09937710E-05
   20.2800007      -9.53921062E-06
   20.3999996      -7.99825648E-06
   20.5200005      -6.41767929E-06
   20.6399994      -4.84264774E-06
   20.7600002      -3.31549040E-06
   20.8799992      -1.87465878E-06
   21.0000000      -5.53891027E-07
   21.1200008       6.18428373E-07
   21.2399998       1.61972309E-06
   21.3600006       2.43350996E-06
   21.4799995       3.04952800E-06
   21.6000004       3.46373349E-06
   21.7199993       3.67816619E-06
   21.8400002       3.70070393E-06
   21.9599991       3.54470149E-06
   22.0799999       3.22852429E-06
   22.2000008       2.77496815E-06
   22.3199997       2.21057144E-06
   22.4400005       1.56481917E-06
   22.5599995       8.69241831E-07
   22.6800003       1.56424164E-07
   22.7999992      -5.41060331E-07
   22.9200001      -1.19176195E-06
   23.0400009      -1.76648234E-06
   23.1599998      -2.23937468E-06
   23.2800007      -2.58897285E-06
   23.3999996      -2.79910046E-06
   23.5200005      -2.85960959E-06
   23.6399994      -2.76690275E-06
   23.7600002      -2.52420091E-06
   23.8799992      -2.14152510E-06
   24.0000000      -1.63537379E-06
   24.1200008      -1.02809520E-06
   24.2399998      -3.46966544E-07
   24.3600006       3.76988197E-07
   24.4799995       1.11039492E-06
   24.6000004       1.81907888E-06
   24.7199993       2.46969262E-06
   24.8400002       3.03134175E-06
   24.9599991       3.47711898E-06
   25.0799999       3.78546702E-06
   25.2000008       3.94129120E-06
   25.3199997       3.93675191E-06
   25.4400005       3.77169567E-06
   25.5599995       3.45368858E-06
   25.6800003       2.99765225E-06
   25.7999992       2.42511328E-06
   25.9200001       1.76310982E-06
   26.0400009       1.04281276E-06
   26.1599998       2.97936054E-07
   26.2800007      -4.36973494E-07
   26.3999996      -1.12827615E-06
   26.5200005      -1.74491299E-06
   26.6399994      -2.25992517E-06
   26.7600002      -2.65174003E-06
   26.8799992      -2.90515982E-06
   27.0000000      -3.01200384E-06
   27.1200008      -2.97138263E-06
   27.2399998      -2.78959260E-06
   27.3600006      -2.47964613E-06
   27.4799995      -2.06047412E-06
   27.6000004      -1.55583928E-06
   27.7199993      -9.93032813E-07
   27.8400002      -4.01416884E-07
   27.9599991       1.89103787E-07
   28.0799999       7.49604851E-07
   28.2000008       1.25358042E-06
   28.3199997       1.67822418E-06
   28.4400005       2.00549107E-06
   28.5599995       2.22288418E-06
   28.6800003       2.32393700E-06
   28.7999992       2.30836804E-06
   28.9200001       2.18190530E-06
   29.0400009       1.95580128E-06
   29.1599998       1.64606956E-06
   29.2800007       1.27249086E-06
   29.3999996       8.57454438E-07
   29.5200005       4.24696964E-07
   29.6399994      -1.98267847E-09
   29.7600002      -3.99965160E-07
   29.8799992      -7.48940295E-07
   30.0000000      -1.03186846E-06
   30.1200008      -1.23573034E-06
   30.2399998      -1.35203504E-06
   30.3600006      -1.37707275E-06
   30.4799995      -1.31191302E-06
   30.6000004      -1.16216415E-06
   30.7199993      -9.37522088E-07
   30.8400002      -6.51139317E-07
   30.9599991      -3.18860288E-07
   31.0799999       4.16362909E-08
   31.2000008       4.11743116E-07
   31.3199997       7.72835051E-07
   31.4400005       1.10714768E-06
   31.5599995       1.39858787E-06
   31.6800003       1.63344680E-06
   31.7999992       1.80099335E-06
   31.9200001       1.89392495E-06
   32.0400009       1.90866467E-06
   32.1599998       1.84549333E-06
   32.2799988       1.70851104E-06
   32.4000015       1.50543042E-06
   32.5200005       1.24720634E-06
   32.6399994       9.47514820E-07
   32.7599983       6.22099606E-07
   32.8800011       2.88013297E-07
   33.0000000      -3.72141180E-08
   33.1199989      -3.36441218E-07
   33.2400017      -5.93771460E-07
   33.3600006      -7.95354651E-07
   33.4799995      -9.30089186E-07
   33.5999985      -9.90183253E-07
   33.7200012      -9.71540203E-07
   33.8400002      -8.73944998E-07
   33.9599991      -7.01038061E-07
   34.0800018      -4.60080173E-07
   34.2000008      -1.61523730E-07
   34.3199997       1.81578784E-07
   34.4399986       5.54286601E-07
   34.5600014       9.40552013E-07
   34.6800003       1.32401578E-06
   34.7999992       1.68876250E-06
   34.9199982       2.01998751E-06
   35.0400009       2.30453475E-06
   35.1599998       2.53128383E-06
   35.2799988       2.69137536E-06
   35.4000015       2.77828531E-06
   35.5200005       2.78776520E-06
   35.6399994       2.71769318E-06
   35.7599983       2.56786689E-06
   35.8800011       2.33979245E-06
   36.0000000       2.03650347E-06
   36.1199989       1.66244934E-06
   36.2400017       1.22346694E-06
   36.3600006       7.26844860E-07
   36.4799995       1.81465936E-07
   36.5999985      -4.02000353E-07
   36.7200012      -1.01089711E-06
   36.8400002      -1.63042137E-06
   36.9599991      -2.24356313E-06
   37.0800018      -2.83119402E-06
   37.2000008      -3.37234928E-06
   37.3199997      -3.84473105E-06
   37.4399986      -4.22544645E-06
   37.5600014      -4.49196341E-06
   37.6800003      -4.62325579E-06
   37.7999992      -4.60107549E-06
   37.9199982      -4.41128259E-06
   38.0400009      -4.04513594E-06
   38.1599998      -3.50045207E-06
   38.2799988      -2.78252901E-06
   38.4000015      -1.90474611E-06
   38.5200005      -8.88760439E-07
   38.6399994       2.35754953E-07
   38.7599983       1.43185832E-06
   38.8800011       2.65656422E-06
   39.0000000       3.86251031E-06
   39.1199989       4.99999214E-06
   39.2400017       6.01925967E-06
   39.3600006       6.87295687E-06
   39.4799995       7.51855578E-06
   39.5999985       7.92064475E-06
   39.7200012       8.05291984E-06
   39.8400002       7.89975638E-06
   39.9599991       7.45726311E-06
   40.0800018       6.73372779E-06
   40.2000008       5.74944352E-06
   40.3199997       4.53590610E-06
   40.4399986       3.13443797E-06
   40.5600014       1.59431590E-06
   40.6800003      -2.94797307E-08
   40.7999992      -1.67876181E-06
   40.9199982      -3.29473301E-06
   41.0400009      -4.82053565E-06
   41.1599998      -6.20361789E-06
   41.2799988      -7.39779898E-06
   41.4000015      -8.36494200E-06
   41.5200005      -9.07617596E-06
   41.6399994      -9.51263428E-06
   41.7599983      -9.66571679E-06
   41.8800011      -9.53690869E-06
   42.0000000      -9.13720760E-06
   42.1199989      -8.48623040E-06
   42.2400017      -7.61107958E-06
   42.3600006      -6.54504856E-06
   42.4799995      -5.32623426E-06
   42.5999985      -3.99612099E-06
   42.7200012      -2.59818421E-06
   42.8400002      -1.17654292E-06
   42.9599991       2.25318075E-07
   43.0800018       1.56574879E-06
   43.2000008       2.80605445E-06
   43.3199997       3.91153390E-06
   43.4399986       4.85243345E-06
   43.5600014       5.60479566E-06
   43.6800003       6.15119325E-06
   43.7999992       6.48130526E-06
   43.9199982       6.59230773E-06
   44.0400009       6.48902505E-06
   44.1599998       6.18381728E-06
   44.2799988       5.69615804E-06
   44.4000015       5.05189882E-06
   44.5200005       4.28221483E-06
   44.6399994       3.42226622E-06
   44.7599983       2.50962739E-06
   44.8800011       1.58255864E-06
   45.0000000       6.78216963E-07
   45.1199989      -1.69085155E-07
   45.2400017      -9.29465159E-07
   45.3600006      -1.57879549E-06
   45.4799995      -2.09968152E-06
   45.5999985      -2.48203128E-06
   45.7200012      -2.72318334E-06
   45.8400002      -2.82759675E-06
   45.9599991      -2.80613790E-06
   46.0800018      -2.67502674E-06
   46.2000008      -2.45453316E-06
   46.3199997      -2.16752392E-06
   46.4399986      -1.83796965E-06
   46.5600014      -1.48951437E-06
   46.6800003      -1.14419595E-06
   46.7999992      -8.21391779E-07
   46.9199982      -5.37030587E-07
   47.0400009      -3.03092378E-07
   47.1599998      -1.27389541E-07
   47.2799988      -1.36014409E-08
   47.4000015       3.84810690E-08
   47.5200005       3.25541230E-08
   47.6399994      -2.47025245E-08
   47.7599983      -1.24181057E-07
   47.8800011      -2.54913317E-07
   48.0000000      -4.04625325E-07
   48.1199989      -5.60267722E-07
   48.2400017      -7.08525249E-07
   48.3600006      -8.36318293E-07
   48.4799995      -9.31313082E-07
   48.5999985      -9.82456072E-07
   48.7200012      -9.80537834E-07
   48.8400002      -9.18778426E-07
   48.9599991      -7.93408390E-07
   49.0800018      -6.04201659E-07
   49.2000008      -3.54901033E-07
   49.3199997      -5.34702593E-08
   49.4399986       2.87897308E-07
   49.5600014       6.53068639E-07
   49.6800003       1.02259798E-06
   49.7999992       1.37469601E-06
   49.9199982       1.68651331E-06
   50.0400009       1.93566848E-06
   50.1599998       2.10191661E-06
   50.2799988       2.16882654E-06
   50.4000015       2.12531654E-06
   50.5200005       1.96689712E-06
   50.6399994       1.69648706E-06
   50.7599983       1.32469597E-06
   50.8800011       8.69510927E-07
   51.0000000       3.55382468E-07
   51.1199989      -1.88245551E-07
   51.2400017      -7.28858311E-07
   51.3600006      -1.23309951E-06
   51.4799995      -1.66912923E-06
   51.5999985      -2.00891554E-06
   51.7200012      -2.23027268E-06
   51.8400002      -2.31847548E-06
   51.9599991      -2.26731822E-06
   52.0800018      -2.07953781E-06
   52.2000008      -1.76657397E-06
   52.3199997      -1.34769482E-06
   52.4399986      -8.48575155E-07
   52.5600014      -2.99450704E-07
   52.6800003       2.66994419E-07
   52.7999992       8.17835939E-07
   52.9199982       1.32204389E-06
   53.0400009       1.75238870E-06
   53.1599998       2.08699453E-06
   53.2799988       2.31045033E-06
   53.4000015       2.41443286E-06
   53.5200005       2.39783276E-06
   53.6399994       2.26641714E-06
   53.7599983       2.03209333E-06
   53.8800011       1.71185388E-06
   54.0000000       1.32650405E-06
   54.1199989       8.99270788E-07
   54.2400017       4.54387845E-07
   54.3600006       1.57394044E-08
   54.4799995      -3.94368584E-07
   54.5999985      -7.56261670E-07
   54.7200012      -1.05374181E-06
   54.8400002      -1.27470821E-06
   54.9599991      -1.41155033E-06
   55.0800018      -1.46131993E-06
   55.2000008      -1.42569593E-06
   55.3199997      -1.31076160E-06
   55.4399986      -1.12661189E-06
   55.5600014      -8.86816338E-07
   55.6800003      -6.07757158E-07
   55.7999992      -3.07864212E-07
   55.9199982      -6.76757139E-09
   56.0400009       2.75612649E-07
   56.1599998       5.20017295E-07
   56.2799988       7.08816060E-07
   56.4000015       8.26964595E-07
   56.5200005       8.62914305E-07
   56.6399994       8.09433516E-07
   56.7599983       6.64288621E-07
   56.8800011       4.30729926E-07
   57.0000000       1.17723808E-07
   57.1199989      -2.60121425E-07
   57.2400017      -6.82978794E-07
   57.3600006      -1.12659666E-06
   57.4799995      -1.56345959E-06
   57.5999985      -1.96427800E-06
   57.7200012      -2.29973421E-06
   57.8400002      -2.54238034E-06
   57.9599991      -2.66855341E-06
   58.0800018      -2.66015877E-06
   58.2000008      -2.50616927E-06
   58.3199997      -2.20370248E-06
   58.4399986      -1.75856633E-06
   58.5600014      -1.18520768E-06
   58.6800003      -5.06049560E-07
   58.7999992       2.49735677E-07
   58.9199982       1.04792502E-06
   59.0400009       1.85127328E-06
   59.1599998       2.62170215E-06
   59.2799988       3.32247419E-06
   59.4000015       3.92017910E-06
   59.5200005       4.38639472E-06
   59.6399994       4.69891620E-06
   59.7599983       4.84251086E-06
   59.8800011       4.80919471E-06
   60.0000000       4.59808007E-06
   60.1199989       4.21488267E-06
   60.2400017       3.67119310E-06
   60.3600006       2.98362943E-06
   60.4799995       2.17297247E-06
   60.5999985       1.26336511E-06
   60.7200012       2.81619322E-07
   60.8400002      -7.43357816E-07
   60.9599991      -1.78104870E-06
   61.0800018      -2.79977576E-06
   61.2000008      -3.76718981E-06
   61.3199997      -4.65086896E-06
   61.4399986      -5.41909321E-06
   61.5600014      -6.04182378E-06
   61.6800003      -6.49189133E-06
   61.7999992      -6.74634521E-06
   61.9199982      -6.78788228E-06
   62.0400009      -6.60624255E-06
   62.1599998      -6.19941966E-06
   62.2799988      -5.57456224E-06
   62.4000015      -4.74841499E-06
   62.5200005      -3.74721162E-06
   62.6399994      -2.60594766E-06
   62.7599983      -1.36704034E-06
   62.8800011      -7.84194754E-08
   63.0000000       1.20883647E-06
   63.1199989       2.44316720E-06
   63.2400017       3.57530939E-06
   63.3600006       4.56098496E-06
   63.4799995       5.36330026E-06
   63.5999985       5.95468055E-06
   63.7200012       6.31820512E-06
   63.8400002       6.44825559E-06
   63.9599991       6.35044717E-06
   64.0800018       6.04087745E-06
   64.1999969       5.54476173E-06
   64.3199997       4.89458034E-06
   64.4400024       4.12788995E-06
   64.5599976       3.28494934E-06
   64.6800003       2.40633585E-06
   64.8000031       1.53069868E-06
   64.9199982       6.92779452E-07
   65.0400009      -7.81924072E-08
   65.1600037      -7.59653972E-07
   65.2799988      -1.33637354E-06
   65.4000015      -1.80061033E-06
   65.5199966      -2.15178784E-06
   65.6399994      -2.39572478E-06
   65.7600021      -2.54349607E-06
   65.8799973      -2.61000855E-06
   66.0000000      -2.61240757E-06
   66.1200027      -2.56843009E-06
   66.2399979      -2.49483401E-06
   66.3600006      -2.40602230E-06
   66.4800034      -2.31297577E-06
   66.5999985      -2.22257495E-06
   66.7200012      -2.13736803E-06
   66.8399963      -2.05579113E-06
   66.9599991      -1.97281338E-06
   67.0800018      -1.88092952E-06
   67.1999969      -1.77138656E-06
   67.3199997      -1.63551113E-06
   67.4400024      -1.46598347E-06
   67.5599976      -1.25791678E-06
   67.6800003      -1.00962177E-06
   67.8000031      -7.22971549E-07
   67.9199982      -4.03333161E-07
   68.0400009      -5.90855400E-08
   68.1600037       2.99206704E-07
   68.2799988       6.59849832E-07
   68.4000015       1.01116564E-06
   68.5199966       1.34257118E-06
   68.6399994       1.64545224E-06
   68.7600021       1.91371555E-06
   68.8799973       2.14394686E-06
   69.0000000       2.33516289E-06
   69.1200027       2.48818901E-06
   69.2399979       2.60475872E-06
   69.3600006       2.68646431E-06
   69.4800034       2.73371484E-06
   69.5999985       2.74487070E-06
   69.7200012       2.71569434E-06
   69.8399963       2.63924176E-06
   69.9599991       2.50625521E-06
   70.0800018       2.30606383E-06
   70.1999969       2.02793217E-06
   70.3199997       1.66273901E-06
   70.4400024       1.20480411E-06
   70.5599976       6.53666802E-07
   70.6800003       1.55854316E-08
   70.8000031      -6.95448307E-07
   70.9199982      -1.45735510E-06
   71.0400009      -2.24039081E-06
   71.1600037      -3.00838633E-06
   71.2799988      -3.72076465E-06
   71.4000015      -4.33520290E-06
   71.5199966      -4.81074130E-06
   71.6399994      -5.11106919E-06
   71.7600021      -5.20769800E-06
   71.8799973      -5.08271751E-06
   72.0000000      -4.73085856E-06
   72.1200027      -4.16064313E-06
   72.2399979      -3.39448843E-06
   72.3600006      -2.46770674E-06
   72.4800034      -1.42646707E-06
   72.5999985      -3.24862299E-07
   72.7200012       7.78679464E-07