  -30.0000000       0.00000000    
  -29.8799992       0.00000000    
  -29.7600002       0.00000000    
  -29.6399994       0.00000000    
  -29.5200005       0.00000000    
  -29.3999996       0.00000000    
  -29.2800007       0.00000000    
  -29.1599998       0.00000000    
  -29.0400009       0.00000000    
  -28.9200001       2.95434886E-38
  -28.7999992       5.78679362E-37
  -28.6800003       5.81820629E-36
  -28.5599995       4.04865452E-35
  -28.4400005       2.17326452E-34
  -28.3199997       9.38963306E-34
  -28.2000008       3.30728201E-33
  -28.0799999       9.44585971E-33
  -27.9599991       2.12472749E-32
  -27.8400002       3.42226843E-32
  -27.7199993       2.33157615E-32
  -27.6000004      -7.41804056E-32
  -27.4799995      -3.52248096E-31
  -27.3600006      -8.55591839E-31
  -27.2399998      -1.38474702E-30
  -27.1200008      -1.24607263E-30
  -27.0000000       8.00446484E-31
  -26.8799992       5.98950859E-30
  -26.7600002       1.41585221E-29
  -26.6399994       2.19806069E-29
  -26.5200005       2.22362184E-29
  -26.3999996       5.73482956E-30
  -26.2800007      -3.41300365E-29
  -26.1599998      -9.71566356E-29
  -26.0400009      -1.76186069E-28
  -25.9200001      -2.58524004E-28
  -25.7999992      -3.13456124E-28
  -25.6800003      -2.44516475E-28
  -25.5599995       1.86483042E-28
  -25.4400005       1.37536782E-27
  -25.3199997       3.64151868E-27
  -25.2000008       6.55052608E-27
  -25.0799999       7.86918952E-27
  -24.9599991       2.85504015E-27
  -24.8400002      -1.46626408E-26
  -24.7199993      -4.77601044E-26
  -24.6000004      -8.81413888E-26
  -24.4799995      -1.07229629E-25
  -24.3600006      -5.44614285E-26
  -24.2399998       1.26312248E-25
  -24.1200008       4.54472579E-25
  -24.0000000       8.49436351E-25
  -23.8799992       1.07405513E-24
  -23.7600002       7.35806065E-25
  -23.6399994      -5.93447832E-25
  -23.5200005      -3.10181370E-24
  -23.3999996      -6.33833132E-24
  -23.2800007      -8.83601917E-24
  -23.1599998      -8.02913437E-24
  -23.0400009      -8.15487870E-25
  -22.9200001       1.49459007E-23
  -22.7999992       3.80135914E-23
  -22.6800003       6.10384470E-23
  -22.5599995       6.90019915E-23
  -22.4400005       4.10647950E-23
  -22.3199997      -4.18475438E-23
  -22.2000008      -1.82848327E-22
  -22.0799999      -3.51035202E-22
  -21.9599991      -4.67802898E-22
  -21.8400002      -4.11005266E-22
  -21.7199993      -5.14527836E-23
  -21.6000004       6.71903807E-22
  -21.4799995       1.65188372E-21
  -21.3600006       2.53078917E-21
  -21.2399998       2.70407887E-21
  -21.1200008       1.47983369E-21
  -21.0000000      -1.57886736E-21
  -20.8799992      -6.19542810E-21
  -20.7600002      -1.09948144E-20
  -20.6399994      -1.34766244E-20
  -20.5200005      -1.06172420E-20
  -20.3999996      -1.85280556E-22
  -20.2800007       1.75059771E-20
  -20.1599998       3.81133419E-20
  -20.0400009       5.30329531E-20
  -19.9200001       5.12997576E-20
  -19.7999992       2.38266500E-20
  -19.6800003      -3.09541454E-20
  -19.5599995      -1.02226418E-19
  -19.4400005      -1.65584692E-19
  -19.3199997      -1.87896390E-19
  -19.2000008      -1.38695105E-19
  -19.0799999      -5.52122339E-21
  -18.9599991       1.92417824E-19
  -18.8400002       3.99384074E-19
  -18.7199993       5.32750637E-19
  -18.6000004       5.08186991E-19
  -18.4799995       2.74645134E-19
  -18.3600006      -1.52928027E-19
  -18.2399998      -6.77968811E-19
  -18.1200008      -1.13541427E-18
  -18.0000000      -1.33601167E-18
  -17.8799992      -1.13170095E-18
  -17.7600002      -4.80872247E-19
  -17.6399994       5.12074068E-19
  -17.5200005       1.60287812E-18
  -17.3999996       2.46456768E-18
  -17.2800007       2.78186403E-18
  -17.1599998       2.35337909E-18
  -17.0400009       1.16673195E-18
  -16.9200001      -5.80138935E-19
  -16.7999992      -2.51904910E-18
  -16.6800003      -4.19824022E-18
  -16.5599995      -5.18516347E-18
  -16.4400005      -5.15331991E-18
  -16.3199997      -3.93478568E-18
  -16.2000008      -1.54204778E-18
  -16.0799999       1.81933557E-18
  -15.9600000       5.72468086E-18
  -15.8400002       9.48993794E-18
  -15.7200003       1.21544571E-17
  -15.6000004       1.25586349E-17
  -15.4799995       9.59242148E-18
  -15.3599997       2.64129171E-18
  -15.2399998      -7.84843772E-18
  -15.1199999      -1.98951893E-17
  -15.0000000      -2.99066787E-17
  -14.8800001      -3.32994658E-17
  -14.7600002      -2.59294553E-17
  -14.6400003      -6.10553880E-18
  -14.5200005       2.34589696E-17
  -14.3999996       5.47132892E-17
  -14.2799997       7.53040216E-17
  -14.1599998       7.20501445E-17
  -14.0400000       3.63975219E-17
  -13.9200001      -2.97483761E-17
  -13.8000002      -1.10298275E-16
  -13.6800003      -1.75953267E-16
  -13.5600004      -1.91412995E-16
  -13.4399996      -1.28176824E-16
  -13.3199997       2.04346847E-17
  -13.1999998       2.27665463E-16
  -13.0799999       4.31345573E-16
  -12.9600000       5.45894259E-16
  -12.8400002       4.88277648E-16
  -12.7200003       2.12119999E-16
  -12.6000004      -2.61033214E-16
  -12.4799995      -8.26570325E-16
  -12.3599997      -1.30867384E-15
  -12.2399998      -1.50271819E-15
  -12.1199999      -1.24102386E-15
  -12.0000000      -4.64063358E-16
  -11.8800001       7.27412572E-16
  -11.7600002       2.06293646E-15
  -11.6400003       3.14934833E-15
  -11.5200005       3.57107778E-15
  -11.3999996       3.02105481E-15
  -11.2799997       1.42430771E-15
  -11.1599998      -9.88633774E-16
  -11.0400000      -3.69226278E-15
  -10.9200001      -5.97189314E-15
  -10.8000002      -7.10601943E-15
  -10.6800003      -6.57824930E-15
  -10.5600004      -4.25552402E-15
  -10.4399996      -4.72572387E-16
  -10.3199997       4.01318112E-15
  -10.1999998       8.19274068E-15
  -10.0799999       1.10573062E-14
  -9.96000004       1.18560133E-14
  -9.84000015       1.02803432E-14
  -9.72000027       6.52021484E-15
  -9.60000038       1.18278082E-15
  -9.47999954      -4.88408176E-15
  -9.35999966      -1.07867325E-14
  -9.23999977      -1.57204013E-14
  -9.11999989      -1.89998977E-14
  -9.00000000      -2.00034843E-14
  -8.88000011      -1.81067133E-14
  -8.76000023      -1.27111354E-14
  -8.64000034      -3.44708189E-15
  -8.52000046       9.45116313E-15
  -8.39999962       2.47111596E-14
  -8.27999973       3.97385304E-14
  -8.15999985       5.07218304E-14
  -8.03999996       5.32910948E-14
  -7.92000008       4.37179420E-14
  -7.80000019       2.04108411E-14
  -7.67999983      -1.47534657E-14
  -7.55999994      -5.58158222E-14
  -7.44000006      -9.32974604E-14
  -7.32000017      -1.16102942E-13
  -7.19999981      -1.14486274E-13
  -7.07999992      -8.33533749E-14
  -6.96000004      -2.48764767E-14
  -6.84000015       5.06010232E-14
  -6.71999979       1.26025004E-13
  -6.59999990       1.81440271E-13
  -6.48000002       1.99339595E-13
  -6.36000013       1.70089637E-13
  -6.23999977       9.57193648E-14
  -6.11999989      -9.33835698E-15
  -6.00000000      -1.21128151E-13
  -5.88000011      -2.12120537E-13
  -5.76000023      -2.58610001E-13
  -5.63999987      -2.47353760E-13
  -5.51999998      -1.79374324E-13
  -5.40000010      -6.97172422E-14
  -5.28000021       5.67228048E-14
  -5.15999985       1.71893681E-13
  -5.03999996       2.51600905E-13
  -4.92000008       2.80709511E-13
  -4.80000019       2.55254151E-13
  -4.67999983       1.81475942E-13
  -4.55999994       7.29519797E-14
  -4.44000006      -5.25419145E-14
  -4.32000017      -1.75211516E-13
  -4.19999981      -2.74329496E-13
  -4.07999992      -3.29238833E-13
  -3.96000004      -3.21805083E-13
  -3.83999991      -2.41271169E-13
  -3.72000003      -9.08869131E-14
  -3.59999990       1.06225216E-13
  -3.48000002       3.05706740E-13
  -3.35999990       4.48417128E-13
  -3.24000001       4.75635373E-13
  -3.11999989       3.50191311E-13
  -3.00000000       7.69918187E-14
  -2.88000011      -2.85558063E-13
  -2.75999999      -6.30583910E-13
  -2.64000010      -8.27065575E-13
  -2.51999998      -7.59525580E-13
  -2.40000010      -3.72387993E-13
  -2.27999997       2.95774798E-13
  -2.16000009       1.10226628E-12
  -2.03999996       1.82282249E-12
  -1.91999996       2.20515143E-12
  -1.79999995       2.04116910E-12
  -1.67999995       1.23762567E-12
  -1.55999994      -1.37353738E-13
  -1.44000006      -1.84923929E-12
  -1.32000005      -3.53967333E-12
  -1.20000005      -4.80832475E-12
  -1.08000004      -5.31265743E-12
 -0.959999979      -4.85702147E-12
 -0.839999974      -3.44393936E-12
 -0.720000029      -1.27088379E-12
 -0.600000024       1.32748923E-12
 -0.479999989       3.97374668E-12
 -0.360000014       6.34750932E-12
 -0.239999995       8.25581530E-12
 -0.119999997       9.64714506E-12
  -1.11022302E-15   1.05603659E-11
  0.119999997       1.10227001E-11
  0.239999995       1.09305880E-11
  0.360000014       9.95671514E-12
  0.479999989       7.52086848E-12
  0.600000024       2.84226462E-12
  0.720000029      -4.93722164E-12
  0.839999974      -1.65959035E-11
  0.959999979      -3.26922552E-11
   1.08000004      -5.34879259E-11
   1.20000005      -7.89554325E-11
   1.32000005      -1.08857021E-10
   1.44000006      -1.42848872E-10
   1.55999994      -1.80549922E-10
   1.67999995      -2.21526492E-10
   1.79999995      -2.65181516E-10
   1.91999996      -3.10588222E-10
   2.03999996      -3.56351754E-10
   2.16000009      -4.00596917E-10
   2.27999997      -4.41154085E-10
   2.40000010      -4.75949447E-10
   2.51999998      -5.03521780E-10
   2.64000010      -5.23515120E-10
   2.75999999      -5.36969802E-10
   2.88000011      -5.46271306E-10
   3.00000000      -5.54714608E-10
   3.11999989      -5.65772318E-10
   3.24000001      -5.82274007E-10
   3.35999990      -6.05758110E-10
   3.48000002      -6.36227515E-10
   3.59999990      -6.72411238E-10
   3.72000003      -7.12462589E-10
   3.83999991      -7.54857898E-10
   3.96000004      -7.99167399E-10
   4.07999992      -8.46398840E-10
   4.19999981      -8.98759955E-10
   4.32000017      -9.58896740E-10
   4.44000006      -1.02887832E-09
   4.55999994      -1.10931209E-09
   4.67999983      -1.19895183E-09
   4.80000019      -1.29498956E-09
   4.92000008      -1.39396938E-09
   5.03999996      -1.49301493E-09
   5.15999985      -1.59092395E-09
   5.28000021      -1.68870684E-09
   5.40000010      -1.78934767E-09
   5.51999998      -1.89684624E-09
   5.63999987      -2.01488759E-09
   5.76000023      -2.14562745E-09
   5.88000011      -2.28905828E-09
   6.00000000      -2.44320209E-09
   6.11999989      -2.60506572E-09
   6.23999977      -2.77200152E-09
   6.36000013      -2.94295921E-09
   6.48000002      -3.11916115E-09
   6.59999990      -3.30395378E-09
   6.71999979      -3.50191010E-09
   6.84000015      -3.71754760E-09
   6.96000004      -3.95415345E-09
   7.07999992      -4.21317381E-09
   7.19999981      -4.49436222E-09
   7.32000017      -4.79659468E-09
   7.44000006      -5.11898790E-09
   7.55999994      -5.46182788E-09
   7.67999983      -5.82693405E-09
   7.80000019      -6.21729201E-09
   7.92000008      -6.63612498E-09
   8.03999996      -7.08579062E-09
   8.15999985      -7.56698260E-09
   8.27999973      -8.07859468E-09
   8.39999962      -8.61835403E-09
   8.52000046      -9.18401266E-09
   8.64000034      -9.77462644E-09
   8.76000023      -1.03914433E-08
   8.88000011      -1.10379750E-08
   9.00000000      -1.17191723E-08
   9.11999989      -1.24399202E-08
   9.23999977      -1.32033611E-08
   9.35999966      -1.40096255E-08
   9.47999954      -1.48554928E-08
   9.60000038      -1.57351696E-08
   9.72000027      -1.66420655E-08
   9.84000015      -1.75710202E-08
   9.96000004      -1.85203923E-08
   10.0799999      -1.94932994E-08
   10.1999998      -2.04976498E-08
   10.3199997      -2.15448761E-08
   10.4399996      -2.26477432E-08
   10.5600004      -2.38178473E-08
   10.6800003      -2.50634908E-08
   10.8000002      -2.63885518E-08
   10.9200001      -2.77925594E-08
   11.0400000      -2.92719502E-08
   11.1599998      -3.08219299E-08
   11.2799997      -3.24384359E-08
   11.3999996      -3.41194841E-08
   11.5200005      -3.58656358E-08
   11.6400003      -3.76794631E-08
   11.7600002      -3.95643873E-08
   11.8800001      -4.15233536E-08
   12.0000000      -4.35578364E-08
   12.1199999      -4.56675409E-08
   12.2399998      -4.78509392E-08
   12.3599997      -5.01062694E-08
   12.4799995      -5.24327852E-08
   12.6000004      -5.48317196E-08
   12.7200003      -5.73067815E-08
   12.8400002      -5.98639716E-08
   12.9600000      -6.25109209E-08
   13.0799999      -6.52559606E-08
   13.1999998      -6.81071555E-08
   13.3199997      -7.10713621E-08
   13.4399996      -7.41535189E-08
   13.5600004      -7.73560629E-08
   13.6800003      -8.06785039E-08
   13.8000002      -8.41173531E-08
   13.9200001      -8.76664359E-08
   14.0400000      -9.13179079E-08
   14.1599998      -9.50638110E-08
   14.2799997      -9.88980915E-08
   14.3999996      -1.02818454E-07
   14.5200005      -1.06827486E-07
   14.6400003      -1.10932575E-07
   14.7600002      -1.15144132E-07
   14.8800001      -1.19472688E-07
   15.0000000      -1.23925545E-07
   15.1199999      -1.28503999E-07
   15.2399998      -1.33202263E-07
   15.3599997      -1.38008744E-07
   15.4799995      -1.42909215E-07
   15.6000004      -1.47891328E-07
   15.7200003      -1.52948701E-07
   15.8400002      -1.58083694E-07
   15.9600000      -1.63307135E-07
   16.0799999      -1.68635594E-07
   16.2000008      -1.74086352E-07
   16.3199997      -1.79671986E-07
   16.4400005      -1.85395848E-07
   16.5599995      -1.91250024E-07
   16.6800003      -1.97216124E-07
   16.7999992      -2.03268797E-07
   16.9200001      -2.09380829E-07
   17.0400009      -2.15528360E-07
   17.1599998      -2.21694648E-07
   17.2800007      -2.27872221E-07
   17.3999996      -2.34062213E-07
   17.5200005      -2.40272215E-07
   17.6399994      -2.46513082E-07
   17.7600002      -2.52795957E-07
   17.8799992      -2.59129820E-07
   18.0000000      -2.65520185E-07
   18.1200008      -2.71969043E-07
   18.2399998      -2.78475710E-07
   18.3600006      -2.85038226E-07
   18.4799995      -2.91654800E-07
   18.6000004      -2.98323926E-07
   18.7199993      -3.05044040E-07
   18.8400002      -3.11812045E-07
   18.9599991      -3.18620494E-07
   19.0799999      -3.25455346E-07
   19.2000008      -3.32294235E-07
   19.3199997      -3.39106890E-07
   19.4400005      -3.45857728E-07
   19.5599995      -3.52510540E-07
   19.6800003      -3.59034914E-07
   19.7999992      -3.65412205E-07
   19.9200001      -3.71638919E-07
   20.0400009      -3.77727389E-07
   20.1599998      -3.83702229E-07
   20.2800007      -3.89594163E-07
   20.3999996      -3.95432835E-07
   20.5200005      -4.01240868E-07
   20.6399994      -4.07030456E-07
   20.7600002      -4.12804638E-07
   20.8799992      -4.18560774E-07
   21.0000000      -4.24296189E-07
   21.1200008      -4.30013586E-07
   21.2399998      -4.35723507E-07
   21.3600006      -4.41444058E-07
   21.4799995      -4.47196442E-07
   21.6000004      -4.52999558E-07
   21.7199993      -4.58864292E-07
   21.8400002      -4.64790787E-07
   21.9599991      -4.70768782E-07
   22.0799999      -4.76781452E-07
   22.2000008      -4.82811004E-07
   22.3199997      -4.88845217E-07
   22.4400005      -4.94882840E-07
   22.5599995      -5.00937404E-07
   22.6800003      -5.07037726E-07
   22.7999992      -5.13226212E-07
   22.9200001      -5.19554760E-07
   23.0400009      -5.26081180E-07
   23.1599998      -5.32864419E-07
   23.2800007      -5.39962684E-07
   23.3999996      -5.47431114E-07
   23.5200005      -5.55321321E-07
   23.6399994      -5.63685262E-07
   23.7600002      -5.72575175E-07
   23.8799992      -5.82046368E-07
   24.0000000      -5.92159779E-07
   24.1200008      -6.02982709E-07
   24.2399998      -6.14588657E-07
   24.3600006      -6.27055726E-07
   24.4799995      -6.40464748E-07
   24.6000004      -6.54893995E-07
   24.7199993      -6.70418785E-07
   24.8400002      -6.87109491E-07
   24.9599991      -7.05036257E-07
   25.0799999      -7.24271843E-07
   25.2000008      -7.44898557E-07
   25.3199997      -7.67012580E-07
   25.4400005      -7.90726290E-07
   25.5599995      -8.16168551E-07
   25.6800003      -8.43481985E-07
   25.7999992      -8.72819726E-07
   25.9200001      -9.04340766E-07
   26.0400009      -9.38206483E-07
   26.1599998      -9.74581098E-07
   26.2800007      -1.01363219E-06
   26.3999996      -1.05553261E-06
   26.5200005      -1.10046392E-06
   26.6399994      -1.14861882E-06
   26.7600002      -1.20020138E-06
   26.8799992      -1.25542374E-06
   27.0000000      -1.31450452E-06
   27.1200008      -1.37766494E-06
   27.2399998      -1.44512455E-06
   27.3600006      -1.51710231E-06
   27.4799995      -1.59381341E-06
   27.6000004      -1.67547341E-06
   27.7199993      -1.76229958E-06
   27.8400002      -1.85451734E-06
   27.9599991      -1.95236339E-06
   28.0799999      -2.05608831E-06
   28.2000008      -2.16595777E-06
   28.3199997      -2.28225304E-06
   28.4400005      -2.40526902E-06
   28.5599995      -2.53531175E-06
   28.6800003      -2.67269616E-06
   28.7999992      -2.81774442E-06
   28.9200001      -2.97078441E-06
   29.0400009      -3.13215196E-06
   29.1599998      -3.30219109E-06
   29.2800007      -3.48125673E-06
   29.3999996      -3.66971472E-06
   29.5200005      -3.86794318E-06
   29.6399994      -4.07632888E-06
   29.7600002      -4.29526290E-06
   29.8799992      -4.52513495E-06
   30.0000000      -4.76633113E-06
   30.1200008      -5.01922932E-06
   30.2399998      -5.28419650E-06
   30.3600006      -5.56159512E-06
   30.4799995      -5.85178395E-06
   30.6000004      -6.15512545E-06
   30.7199993      -6.47199522E-06
   30.8400002      -6.80278526E-06
   30.9599991      -7.14791440E-06
   31.0799999      -7.50782283E-06
   31.2000008      -7.88297712E-06
   31.3199997      -8.27385611E-06
   31.4400005      -8.68094685E-06
   31.5599995      -9.10473591E-06
   31.6800003      -9.54569714E-06
   31.7999992      -1.00042917E-05
   31.9200001      -1.04809669E-05
   32.0400009      -1.09761677E-05
   32.1599998      -1.14903387E-05
   32.2799988      -1.20239383E-05
   32.4000015      -1.25774368E-05
   32.5200005      -1.31513279E-05
   32.6399994      -1.37461184E-05
   32.7599983      -1.43623247E-05
   32.8800011      -1.50004671E-05
   33.0000000      -1.56610622E-05
   33.1199989      -1.63446184E-05
   33.2400017      -1.70516341E-05
   33.3600006      -1.77825987E-05
   33.4799995      -1.85379886E-05
   33.5999985      -1.93182605E-05
   33.7200012      -2.01238636E-05
   33.8400002      -2.09552236E-05
   33.9599991      -2.18127607E-05
   34.0800018      -2.26968787E-05
   34.2000008      -2.36079850E-05
   34.3199997      -2.45464798E-05
   34.4399986      -2.55127725E-05
   34.5600014      -2.65072595E-05
   34.6800003      -2.75303391E-05
   34.7999992      -2.85823953E-05
   34.9199982      -2.96638009E-05
   35.0400009      -3.07749106E-05
   35.1599998      -3.19160645E-05
   35.2799988      -3.30875955E-05
   35.4000015      -3.42898202E-05
   35.5200005      -3.55230513E-05
   35.6399994      -3.67875837E-05
   35.7599983      -3.80836937E-05
   35.8800011      -3.94116396E-05
   36.0000000      -4.07716507E-05
   36.1199989      -4.21639415E-05
   36.2400017      -4.35887159E-05
   36.3600006      -4.50461484E-05
   36.4799995      -4.65364246E-05
   36.5999985      -4.80597082E-05
   36.7200012      -4.96161338E-05
   36.8400002      -5.12058105E-05
   36.9599991      -5.28287928E-05
   37.0800018      -5.44850918E-05
   37.2000008      -5.61746565E-05
   37.3199997      -5.78973995E-05
   37.4399986      -5.96531936E-05
   37.5600014      -6.14418823E-05
   37.6800003      -6.32633164E-05
   37.7999992      -6.51173104E-05
   37.9199982      -6.70036752E-05
   38.0400009      -6.89221997E-05
   38.1599998      -7.08726293E-05
   38.2799988      -7.28546438E-05
   38.4000015      -7.48679086E-05
   38.5200005      -7.69119943E-05
   38.6399994      -7.89864353E-05
   38.7599983      -8.10906931E-05
   38.8800011      -8.32242004E-05
   39.0000000      -8.53863385E-05
   39.1199989      -8.75764599E-05
   39.2400017      -8.97938808E-05
   39.3600006      -9.20378661E-05
   39.4799995      -9.43076666E-05
   39.5999985      -9.66024600E-05
   39.7200012      -9.89213877E-05
   39.8400002      -1.01263518E-04
   39.9599991      -1.03627877E-04
   40.0800018      -1.06013424E-04
   40.2000008      -1.08419037E-04
   40.3199997      -1.10843583E-04
   40.4399986      -1.13285816E-04
   40.5600014      -1.15744464E-04
   40.6800003      -1.18218173E-04
   40.7999992      -1.20705561E-04
   40.9199982      -1.23205144E-04
   41.0400009      -1.25715407E-04
   41.1599998      -1.28234722E-04
   41.2799988      -1.30761488E-04
   41.4000015      -1.33293957E-04
   41.5200005      -1.35830414E-04
   41.6399994      -1.38368996E-04
   41.7599983      -1.40907854E-04
   41.8800011      -1.43445053E-04
   42.0000000      -1.45978600E-04
   42.1199989      -1.48506486E-04
   42.2400017      -1.51026557E-04
   42.3600006      -1.53536705E-04
   42.4799995      -1.56034657E-04
   42.5999985      -1.58518102E-04
   42.7200012      -1.60984710E-04
   42.8400002      -1.63432051E-04
   42.9599991      -1.65857651E-04
   43.0800018      -1.68259052E-04
   43.2000008      -1.70633662E-04
   43.3199997      -1.72978922E-04
   43.4399986      -1.75292211E-04
   43.5600014      -1.77570793E-04
   43.6800003      -1.79811977E-04
   43.7999992      -1.82012926E-04
   43.9199982      -1.84170756E-04
   44.0400009      -1.86282588E-04
   44.1599998      -1.88345439E-04
   44.2799988      -1.90356310E-04
   44.4000015      -1.92312189E-04
   44.5200005      -1.94209977E-04
   44.6399994      -1.96046618E-04
   44.7599983      -1.97818881E-04
   44.8800011      -1.99523638E-04
   45.0000000      -2.01157629E-04
   45.1199989      -2.02717652E-04
   45.2400017      -2.04200478E-04
   45.3600006      -2.05602802E-04
   45.4799995      -2.06921381E-04
   45.5999985      -2.08152866E-04
   45.7200012      -2.09293939E-04
   45.8400002      -2.10341255E-04
   45.9599991      -2.11291510E-04
   46.0800018      -2.12141400E-04
   46.2000008      -2.12887666E-04
   46.3199997      -2.13527033E-04
   46.4399986      -2.14056214E-04
   46.5600014      -2.14471947E-04
   46.6800003      -2.14770946E-04
   46.7999992      -2.14949905E-04
   46.9199982      -2.15005581E-04
   47.0400009      -2.14934698E-04
   47.1599998      -2.14734100E-04
   47.2799988      -2.14400628E-04
   47.4000015      -2.13931227E-04
   47.5200005      -2.13322841E-04
   47.6399994      -2.12572457E-04
   47.7599983      -2.11677136E-04
   47.8800011      -2.10633923E-04
   48.0000000      -2.09439982E-04
   48.1199989      -2.08092519E-04
   48.2400017      -2.06588826E-04
   48.3600006      -2.04926240E-04
   48.4799995      -2.03102201E-04
   48.5999985      -2.01114264E-04
   48.7200012      -1.98960013E-04
   48.8400002      -1.96637149E-04
   48.9599991      -1.94143431E-04
   49.0800018      -1.91476778E-04
   49.2000008      -1.88635167E-04
   49.3199997      -1.85616707E-04
   49.4399986      -1.82419608E-04
   49.5600014      -1.79042210E-04
   49.6800003      -1.75482972E-04
   49.7999992      -1.71740394E-04
   49.9199982      -1.67813152E-04
   50.0400009      -1.63700068E-04
   50.1599998      -1.59400064E-04
   50.2799988      -1.54912239E-04
   50.4000015      -1.50235879E-04
   50.5200005      -1.45370446E-04
   50.6399994      -1.40315562E-04
   50.7599983      -1.35070994E-04
   50.8800011      -1.29636624E-04
   51.0000000      -1.24012542E-04
   51.1199989      -1.18198943E-04
   51.2400017      -1.12196190E-04
   51.3600006      -1.06004831E-04
   51.4799995      -9.96256058E-05
   51.5999985      -9.30594615E-05
   51.7200012      -8.63075256E-05
   51.8400002      -7.93711151E-05
   51.9599991      -7.22517434E-05
   52.0800018      -6.49511276E-05
   52.2000008      -5.74711485E-05
   52.3199997      -4.98139052E-05
   52.4399986      -4.19816970E-05
   52.5600014      -3.39770158E-05
   52.6800003      -2.58025702E-05
   52.7999992      -1.74612542E-05
   52.9199982      -8.95617268E-06
   53.0400009      -2.90632300E-07
   53.1599998       8.53185429E-06
   53.2799988       1.75075547E-05
   53.4000015       2.66325314E-05
   53.5200005       3.59026271E-05
   53.6399994       4.53134671E-05
   53.7599983       5.48604658E-05
   53.8800011       6.45388573E-05
   54.0000000       7.43436758E-05
   54.1199989       8.42697118E-05
   54.2400017       9.43115956E-05
   54.3600006       1.04463739E-04
   54.4799995       1.14720351E-04
   54.5999985       1.25075458E-04
   54.7200012       1.35522860E-04
   54.8400002       1.46056147E-04
   54.9599991       1.56668757E-04
   55.0800018       1.67353923E-04
   55.2000008       1.78104732E-04
   55.3199997       1.88914069E-04
   55.4399986       1.99774644E-04
   55.5600014       2.10679049E-04
   55.6800003       2.21619688E-04
   55.7999992       2.32588805E-04
   55.9199982       2.43578499E-04
   56.0400009       2.54580751E-04
   56.1599998       2.65587325E-04
   56.2799988       2.76589941E-04
   56.4000015       2.87580187E-04
   56.5200005       2.98549450E-04
   56.6399994       3.09489056E-04
   56.7599983       3.20390158E-04
   56.8800011       3.31243820E-04
   57.0000000       3.42041109E-04
   57.1199989       3.52772884E-04
   57.2400017       3.63430096E-04
   57.3600006       3.74003546E-04
   57.4799995       3.84484127E-04
   57.5999985       3.94862582E-04
   57.7200012       4.05129627E-04
   57.8400002       4.15276008E-04
   57.9599991       4.25292470E-04
   58.0800018       4.35169728E-04
   58.2000008       4.44898586E-04
   58.3199997       4.54469904E-04
   58.4399986       4.63874458E-04
   58.5600014       4.73103253E-04
   58.6800003       4.82147123E-04
   58.7999992       4.90997161E-04
   58.9199982       4.99644491E-04
   59.0400009       5.08080295E-04
   59.1599998       5.16295899E-04
   59.2799988       5.24282921E-04
   59.4000015       5.32032980E-04
   59.5200005       5.39537927E-04
   59.6399994       5.46789612E-04
   59.7599983       5.53780061E-04
   59.8800011       5.60501590E-04
   60.0000000       5.66946634E-04
   60.1199989       5.73107973E-04
   60.2400017       5.78978623E-04
   60.3600006       5.84551890E-04
   60.4799995       5.89821313E-04
   60.5999985       5.94780722E-04
   60.7200012       5.99424122E-04
   60.8400002       6.03745633E-04
   60.9599991       6.07739901E-04
   61.0800018       6.11401629E-04
   61.2000008       6.14725926E-04
   61.3199997       6.17708603E-04
   61.4399986       6.20345352E-04
   61.5600014       6.22632564E-04
   61.6800003       6.24566921E-04
   61.7999992       6.26145396E-04
   61.9199982       6.27365429E-04
   62.0400009       6.28224516E-04
   62.1599998       6.28720736E-04
   62.2799988       6.28852868E-04
   62.4000015       6.28619688E-04
   62.5200005       6.28020673E-04
   62.6399994       6.27055706E-04
   62.7599983       6.25724788E-04
   62.8800011       6.24028675E-04
   63.0000000       6.21968240E-04
   63.1199989       6.19544880E-04
   63.2400017       6.16760342E-04
   63.3600006       6.13616896E-04
   63.4799995       6.10117218E-04
   63.5999985       6.06264512E-04
   63.7200012       6.02062384E-04
   63.8400002       5.97514911E-04
   63.9599991       5.92626515E-04
   64.0800018       5.87401970E-04
   64.1999969       5.81846631E-04
   64.3199997       5.75966085E-04
   64.4400024       5.69766446E-04
   64.5599976       5.63254347E-04
   64.6800003       5.56436600E-04
   64.8000031       5.49320714E-04
   64.9199982       5.41914138E-04
   65.0400009       5.34225022E-04
   65.1600037       5.26261400E-04
   65.2799988       5.18032059E-04
   65.4000015       5.09545789E-04
   65.5199966       5.00811904E-04
   65.6399994       4.91840241E-04
   65.7600021       4.82640724E-04
   65.8799973       4.73223627E-04
   66.0000000       4.63599543E-04
   66.1200027       4.53779299E-04
   66.2399979       4.43773926E-04
   66.3600006       4.33594600E-04
   66.4800034       4.23252699E-04
   66.5999985       4.12759866E-04
   66.7200012       4.02127858E-04
   66.8399963       3.91368696E-04
   66.9599991       3.80494341E-04
   67.0800018       3.69517016E-04
   67.1999969       3.58449033E-04
   67.3199997       3.47302761E-04
   67.4400024       3.36090598E-04
   67.5599976       3.24825145E-04
   67.6800003       3.13518947E-04
   67.8000031       3.02184548E-04
   67.9199982       2.90834432E-04
   68.0400009       2.79481115E-04
   68.1600037       2.68136966E-04
   68.2799988       2.56814295E-04
   68.4000015       2.45525298E-04
   68.5199966       2.34282023E-04
   68.6399994       2.23096460E-04
   68.7600021       2.11980470E-04
   68.8799973       2.00945753E-04
   69.0000000       1.90003819E-04
   69.1200027       1.79165960E-04
   69.2399979       1.68443265E-04
   69.3600006       1.57846574E-04
   69.4800034       1.47386454E-04
   69.5999985       1.37073177E-04
   69.7200012       1.26916741E-04
   69.8399963       1.16926800E-04
   69.9599991       1.07112690E-04
   70.0800018       9.74834184E-05
   70.1999969       8.80476946E-05
   70.3199997       7.88138495E-05
   70.4400024       6.97899159E-05
   70.5599976       6.09835297E-05
   70.6800003       5.24019524E-05
   70.8000031       4.40520271E-05
   70.9199982       3.59401602E-05
   71.0400009       2.80723161E-05
   71.1600037       2.04540229E-05
   71.2799988       1.30903836E-05
   71.4000015       5.98608312E-06
   71.5199966      -8.54625796E-07
   71.6399994      -7.42790598E-06
   71.7600021      -1.37303714E-05
   71.8799973      -1.97590834E-05
   72.0000000      -2.55115610E-05
   72.1200027      -3.09857933E-05
   72.2399979      -3.61802231E-05
   72.3600006      -4.10937428E-05
   72.4800034      -4.57256901E-05
   72.5999985      -5.00758360E-05
   72.7200012      -5.41443660E-05