  -30.0000000       0.00000000    
  -29.8799992       0.00000000    
  -29.7600002       0.00000000    
  -29.6399994       0.00000000    
  -29.5200005       0.00000000    
  -29.3999996       0.00000000    
  -29.2800007       0.00000000    
  -29.1599998       0.00000000    
  -29.0400009       0.00000000    
  -28.9200001       0.00000000    
  -28.7999992       0.00000000    
  -28.6800003      -5.60519386E-45
  -28.5599995      -3.92363570E-44
  -28.4400005      -1.37327250E-43
  -28.3199997       1.35365432E-42
  -28.2000008       1.62858908E-41
  -28.0799999       1.21203909E-40
  -27.9599991       7.10437302E-40
  -27.8400002       3.52439456E-39
  -27.7199993       1.45230110E-38
  -27.6000004       4.74671526E-38
  -27.4799995       1.12476645E-37
  -27.3600006       1.32266813E-37
  -27.2399998      -3.27537418E-37
  -27.1200008      -2.57665363E-36
  -27.0000000      -9.16532744E-36
  -26.8799992      -2.25067191E-35
  -26.7600002      -3.87301856E-35
  -26.6399994      -3.46086343E-35
  -26.5200005       4.65690253E-35
  -26.3999996       2.86109103E-34
  -26.2800007       7.15046464E-34
  -26.1599998       1.14414676E-33
  -26.0400009       9.65926851E-34
  -25.9200001      -8.11746073E-34
  -25.7999992      -4.87245347E-33
  -25.6800003      -9.98674213E-33
  -25.5599995      -1.11605680E-32
  -25.4400005       1.47550772E-34
  -25.3199997       3.01490350E-32
  -25.2000008       6.92295643E-32
  -25.0799999       7.62070166E-32
  -24.9599991      -2.16418237E-32
  -24.8400002      -2.84966655E-31
  -24.7199993      -6.57898703E-31
  -24.6000004      -8.35500477E-31
  -24.4799995      -2.24169523E-31
  -24.3600006       1.80681268E-30
  -24.2399998       5.22787326E-30
  -24.1200008       8.34138390E-30
  -24.0000000       7.15606806E-30
  -23.8799992      -3.59574920E-30
  -23.7600002      -2.65791934E-29
  -23.6399994      -5.53369386E-29
  -23.5200005      -6.84967457E-29
  -23.3999996      -3.18024779E-29
  -23.2800007       8.38391731E-29
  -23.1599998       2.66161424E-28
  -23.0400009       4.20987919E-28
  -22.9200001       3.62797703E-28
  -22.7999992      -1.15752061E-28
  -22.6800003      -1.06797264E-27
  -22.5599995      -2.15521807E-27
  -22.4400005      -2.50279950E-27
  -22.3199997      -8.94608904E-28
  -22.2000008       3.49230649E-27
  -22.0799999       9.89043296E-27
  -21.9599991       1.48623074E-26
  -21.8400002       1.24193431E-26
  -21.7199993      -3.53659517E-27
  -21.6000004      -3.42193039E-26
  -21.4799995      -7.01212111E-26
  -21.3600006      -8.83112342E-26
  -21.2399998      -5.78098349E-26
  -21.1200008       4.42779121E-26
  -21.0000000       2.09453565E-25
  -20.8799992       3.79196932E-25
  -20.7600002       4.47910538E-25
  -20.6399994       2.99627097E-25
  -20.5200005      -1.26772548E-25
  -20.3999996      -7.73407958E-25
  -20.2800007      -1.44491146E-24
  -20.1599998      -1.86629640E-24
  -20.0400009      -1.79786528E-24
  -19.9200001      -1.12412659E-24
  -19.7999992       1.88507792E-25
  -19.6800003       2.28979618E-24
  -19.5599995       5.62909685E-24
  -19.4400005       1.07438114E-23
  -19.3199997       1.72651360E-23
  -19.2000008       2.21873093E-23
  -19.0799999       1.83680124E-23
  -18.9599991      -4.74381703E-24
  -18.8400002      -5.58970240E-23
  -18.7199993      -1.31656619E-22
  -18.6000004      -2.04046774E-22
  -18.4799995      -2.14571050E-22
  -18.3600006      -8.63120484E-23
  -18.2399998       2.37055958E-22
  -18.1200008       7.28988609E-22
  -18.0000000       1.21911064E-21
  -17.8799992       1.37902247E-21
  -17.7600002       8.05704057E-22
  -17.6399994      -7.73084747E-22
  -17.5200005      -3.21145744E-21
  -17.3999996      -5.70275116E-21
  -17.2800007      -6.77433659E-21
  -17.1599998      -4.69928697E-21
  -17.0400009       1.63515119E-21
  -16.9200001       1.16228780E-20
  -16.7999992       2.21135832E-20
  -16.6800003       2.75477026E-20
  -16.5599995       2.15851844E-20
  -16.4400005       2.01589126E-22
  -16.3199997      -3.46515006E-20
  -16.2000008      -7.25756120E-20
  -16.0799999      -9.55063252E-20
  -15.9600000      -8.31013044E-20
  -15.8400002      -2.22426912E-20
  -15.7200003       8.23548126E-20
  -15.6000004       2.01534142E-19
  -15.4799995       2.84493572E-19
  -15.3599997       2.73918973E-19
  -15.2399998       1.31219060E-19
  -15.1199999      -1.36566046E-19
  -15.0000000      -4.60959580E-19
  -14.8800001      -7.19564984E-19
  -14.7600002      -7.72067171E-19
  -14.6400003      -5.17616850E-19
  -14.5200005       4.64372669E-20
  -14.3999996       7.91656721E-19
  -14.2799997       1.47447777E-18
  -14.1599998       1.80722668E-18
  -14.0400000       1.56587089E-18
  -13.9200001       6.94421174E-19
  -13.8000002      -6.41190499E-19
  -13.6800003      -2.08210769E-18
  -13.5600004      -3.18667071E-18
  -13.4399996      -3.58043391E-18
  -13.3199997      -3.08026943E-18
  -13.1999998      -1.73407073E-18
  -13.0799999       2.40412187E-19
  -12.9600000       2.57428285E-18
  -12.8400002       5.03540284E-18
  -12.7200003       7.40032999E-18
  -12.6000004       9.29069660E-18
  -12.4799995       9.96253931E-18
  -12.3599997       8.23342412E-18
  -12.2399998       2.74840933E-18
  -12.1199999      -7.32533283E-18
  -12.0000000      -2.13151192E-17
  -11.8800001      -3.61772603E-17
  -11.7600002      -4.63249730E-17
  -11.6400003      -4.46601265E-17
  -11.5200005      -2.49551391E-17
  -11.3999996       1.48694632E-17
  -11.2799997       6.96627888E-17
  -11.1599998       1.25632297E-16
  -11.0400000       1.61946413E-16
  -10.9200001       1.55926391E-16
  -10.8000002       9.11213097E-17
  -10.6800003      -3.38620313E-17
  -10.5600004      -1.98933774E-16
  -10.4399996      -3.61781854E-16
  -10.3199997      -4.65013253E-16
  -10.1999998      -4.51148806E-16
  -10.0799999      -2.82602034E-16
  -9.96000004       3.88447755E-17
  -9.84000015       4.59959060E-16
  -9.72000027       8.77664359E-16
  -9.60000038       1.15771023E-15
  -9.47999954       1.16894687E-15
  -9.35999966       8.26138550E-16
  -9.23999977       1.29588735E-16
  -9.11999989      -8.12049057E-16
  -9.00000000      -1.78719526E-15
  -8.88000011      -2.51988278E-15
  -8.76000023      -2.73666181E-15
  -8.64000034      -2.24705855E-15
  -8.52000046      -1.01568557E-15
  -8.39999962       7.96989341E-16
  -8.27999973       2.84195711E-15
  -8.15999985       4.64130687E-15
  -8.03999996       5.68942586E-15
  -7.92000008       5.57247687E-15
  -7.80000019       4.07739807E-15
  -7.67999983       1.26517023E-15
  -7.55999994      -2.50624428E-15
  -7.44000006      -6.61100152E-15
  -7.32000017      -1.02290960E-14
  -7.19999981      -1.24554789E-14
  -7.07999992      -1.24398630E-14
  -6.96000004      -9.55704479E-15
  -6.84000015      -3.60367457E-15
  -6.71999979       5.00073217E-15
  -6.59999990       1.50609200E-14
  -6.48000002       2.45830374E-14
  -6.36000013       3.09724746E-14
  -6.23999977       3.15113807E-14
  -6.11999989       2.40952921E-14
  -6.00000000       8.09406219E-15
  -5.88000011      -1.49101380E-14
  -5.76000023      -4.08148585E-14
  -5.63999987      -6.33877919E-14
  -5.51999998      -7.54663937E-14
  -5.40000010      -7.08255069E-14
  -5.28000021      -4.62938641E-14
  -5.15999985      -3.49726351E-15
  -5.03999996       5.04286791E-14
  -4.92000008       1.03625231E-13
  -4.80000019       1.41875755E-13
  -4.67999983       1.52134043E-13
  -4.55999994       1.26356499E-13
  -4.44000006       6.45458147E-14
  -4.32000017      -2.39987270E-14
  -4.19999981      -1.21811361E-13
  -4.07999992      -2.06711913E-13
  -3.96000004      -2.56840014E-13
  -3.83999991      -2.56032148E-13
  -3.72000003      -1.98152299E-13
  -3.59999990      -8.92432693E-14
  -3.48000002       5.30526144E-14
  -3.35999990       2.02636939E-13
  -3.24000001       3.29876046E-13
  -3.11999989       4.07173156E-13
  -3.00000000       4.14080066E-13
  -2.88000011       3.41137681E-13
  -2.75999999       1.92051155E-13
  -2.64000010      -1.58587878E-14
  -2.51999998      -2.52855137E-13
  -2.40000010      -4.79632555E-13
  -2.27999997      -6.51940036E-13
  -2.16000009      -7.27080668E-13
  -2.03999996      -6.72040494E-13
  -1.91999996      -4.72309583E-13
  -1.79999995      -1.39611548E-13
  -1.67999995       2.83876140E-13
  -1.55999994       7.27241021E-13
  -1.44000006       1.10003792E-12
  -1.32000005       1.30875074E-12
  -1.20000005       1.27802207E-12
  -1.08000004       9.72068129E-13
 -0.959999979       4.10566926E-13
 -0.839999974      -3.26292677E-13
 -0.720000029      -1.10679987E-12
 -0.600000024      -1.77055386E-12
 -0.479999989      -2.16114518E-12
 -0.360000014      -2.16161962E-12
 -0.239999995      -1.72431286E-12
 -0.119999997      -8.87526435E-13
  -1.11022302E-15   2.25518226E-13
  0.119999997       1.42580999E-12
  0.239999995       2.49185785E-12
  0.360000014       3.21016998E-12
  0.479999989       3.41471296E-12
  0.600000024       3.01805260E-12
  0.720000029       2.02931183E-12
  0.839999974       5.57099885E-13
  0.959999979      -1.20179647E-12
   1.08000004      -2.98558075E-12
   1.20000005      -4.49961769E-12
   1.32000005      -5.45492427E-12
   1.44000006      -5.61038846E-12
   1.55999994      -4.81548395E-12
   1.67999995      -3.04872620E-12
   1.79999995      -4.45188591E-13
   1.91999996       2.69491157E-12
   2.03999996       5.92406202E-12
   2.16000009       8.69612542E-12
   2.27999997       1.04444309E-11
   2.40000010       1.06804444E-11
   2.51999998       9.09693848E-12
   2.64000010       5.65490189E-12
   2.75999999       6.33127936E-13
   2.88000011      -5.37540889E-12
   3.00000000      -1.15264586E-11
   3.11999989      -1.68402063E-11
   3.24000001      -2.03513578E-11
   3.35999990      -2.12669448E-11
   3.48000002      -1.91031097E-11
   3.59999990      -1.37768503E-11
   3.72000003      -5.63874208E-12
   3.83999991       4.55478840E-12
   3.96000004       1.57199722E-11
   4.07999992       2.65583389E-11
   4.19999981       3.56858640E-11
   4.32000017       4.17648000E-11
   4.44000006       4.36305957E-11
   4.55999994       4.04114658E-11
   4.67999983       3.16394272E-11
   4.80000019       1.73482236E-11
   4.92000008      -1.85275883E-12
   5.03999996      -2.47451053E-11
   5.15999985      -4.95258730E-11
   5.28000021      -7.39004968E-11
   5.40000010      -9.52403018E-11
   5.51999998      -1.10782848E-10
   5.63999987      -1.17837726E-10
   5.76000023      -1.13954228E-10
   5.88000011      -9.70142924E-11
   6.00000000      -6.52353033E-11
   6.11999989      -1.70959080E-11
   6.23999977       4.87741306E-11
   6.36000013       1.33682593E-10
   6.48000002       2.38887271E-10
   6.59999990       3.65500796E-10
   6.71999979       5.14294718E-10
   6.84000015       6.85450252E-10
   6.96000004       8.78334294E-10
   7.07999992       1.09138543E-09
   7.19999981       1.32217604E-09
   7.32000017       1.56767110E-09
   7.44000006       1.82465265E-09
   7.55999994       2.09022732E-09
   7.67999983       2.36231101E-09
   7.80000019       2.63998756E-09
   7.92000008       2.92367108E-09
   8.03999996       3.21505622E-09
   8.15999985       3.51689433E-09
   8.27999973       3.83267151E-09
   8.39999962       4.16627133E-09
   8.52000046       4.52170568E-09
   8.64000034       4.90292651E-09
   8.76000023       5.31373523E-09
   8.88000011       5.75773207E-09
   9.00000000       6.23827789E-09
   9.11999989       6.75843692E-09
   9.23999977       7.32091943E-09
   9.35999966       7.92806265E-09
   9.47999954       8.58190408E-09
   9.60000038       9.28439814E-09
   9.72000027       1.00377662E-08
   9.84000015       1.08449303E-08
   9.96000004       1.17099050E-08
   10.0799999       1.26380533E-08
   10.1999998       1.36360718E-08
   10.3199997       1.47116745E-08
   10.4399996       1.58730291E-08
   10.5600004       1.71280554E-08
   10.6800003       1.84837798E-08
   10.8000002       1.99459027E-08
   10.9200001       2.15187050E-08
   11.0400000       2.32053416E-08
   11.1599998       2.50083723E-08
   11.2799997       2.69304774E-08
   11.3999996       2.89750695E-08
   11.5200005       3.11467900E-08
   11.6400003       3.34517196E-08
   11.7600002       3.58974468E-08
   11.8800001       3.84930381E-08
   12.0000000       4.12490770E-08
   12.1199999       4.41778347E-08
   12.2399998       4.72935646E-08
   12.3599997       5.06127726E-08
   12.4799995       5.41543734E-08
   12.6000004       5.79394275E-08
   12.7200003       6.19905123E-08
   12.8400002       6.63307205E-08
   12.9600000       7.09824874E-08
   13.0799999       7.59665753E-08
   13.1999998       8.13015149E-08
   13.3199997       8.70036558E-08
   13.4399996       9.30879906E-08
   13.5600004       9.95693838E-08
   13.6800003       1.06464086E-07
   13.8000002       1.13790954E-07
   13.9200001       1.21572256E-07
   14.0400000       1.29833694E-07
   14.1599998       1.38603909E-07
   14.2799997       1.47913568E-07
   14.3999996       1.57794261E-07
   14.5200005       1.68277836E-07
   14.6400003       1.79395940E-07
   14.7600002       1.91180291E-07
   14.8800001       2.03662850E-07
   15.0000000       2.16876572E-07
   15.1199999       2.30855875E-07
   15.2399998       2.45637040E-07
   15.3599997       2.61258407E-07
   15.4799995       2.77761018E-07
   15.6000004       2.95188642E-07
   15.7200003       3.13588657E-07
   15.8400002       3.33012252E-07
   15.9600000       3.53514992E-07
   16.0799999       3.75156503E-07
   16.2000008       3.97999912E-07
   16.3199997       4.22110389E-07
   16.4400005       4.47553418E-07
   16.5599995       4.74393289E-07
   16.6800003       5.02692046E-07
   16.7999992       5.32509432E-07
   16.9200001       5.63903768E-07
   17.0400009       5.96934285E-07
   17.1599998       6.31663170E-07
   17.2800007       6.68158066E-07
   17.3999996       7.06493665E-07
   17.5200005       7.46751709E-07
   17.6399994       7.89020135E-07
   17.7600002       8.33391425E-07
   17.8799992       8.79960453E-07
   18.0000000       9.28822487E-07
   18.1200008       9.80072741E-07
   18.2399998       1.03380637E-06
   18.3600006       1.09011967E-06
   18.4799995       1.14911165E-06
   18.6000004       1.21088533E-06
   18.7199993       1.27554881E-06
   18.8400002       1.34321465E-06
   18.9599991       1.41399926E-06
   19.0799999       1.48802076E-06
   19.2000008       1.56539863E-06
   19.3199997       1.64625237E-06
   19.4400005       1.73070180E-06
   19.5599995       1.81886821E-06
   19.6800003       1.91087497E-06
   19.7999992       2.00684894E-06
   19.9200001       2.10692065E-06
   20.0400009       2.21122514E-06
   20.1599998       2.31990066E-06
   20.2800007       2.43308727E-06
   20.3999996       2.55092777E-06
   20.5200005       2.67356791E-06
   20.6399994       2.80115546E-06
   20.7600002       2.93384164E-06
   20.8799992       3.07178220E-06
   21.0000000       3.21513539E-06
   21.1200008       3.36406106E-06
   21.2399998       3.51871677E-06
   21.3600006       3.67925759E-06
   21.4799995       3.84583154E-06
   21.6000004       4.01858188E-06
   21.7199993       4.19764729E-06
   21.8400002       4.38316511E-06
   21.9599991       4.57527813E-06
   22.0799999       4.77413505E-06
   22.2000008       4.97989413E-06
   22.3199997       5.19272407E-06
   22.4400005       5.41279951E-06
   22.5599995       5.64029779E-06
   22.6800003       5.87539262E-06
   22.7999992       6.11825271E-06
   22.9200001       6.36903451E-06
   23.0400009       6.62788671E-06
   23.1599998       6.89494891E-06
   23.2800007       7.17035437E-06
   23.3999996       7.45423358E-06
   23.5200005       7.74671480E-06
   23.6399994       8.04792671E-06
   23.7600002       8.35799347E-06
   23.8799992       8.67703784E-06
   24.0000000       9.00517716E-06
   24.1200008       9.34252148E-06
   24.2399998       9.68917630E-06
   24.3600006       1.00452417E-05
   24.4799995       1.04108130E-05
   24.6000004       1.07859823E-05
   24.7199993       1.11708359E-05
   24.8400002       1.15654575E-05
   24.9599991       1.19699271E-05
   25.0799999       1.23843156E-05
   25.2000008       1.28086867E-05
   25.3199997       1.32430951E-05
   25.4400005       1.36875879E-05
   25.5599995       1.41422015E-05
   25.6800003       1.46069588E-05
   25.7999992       1.50818687E-05
   25.9200001       1.55669277E-05
   26.0400009       1.60621148E-05
   26.1599998       1.65673882E-05
   26.2800007       1.70826970E-05
   26.3999996       1.76079684E-05
   26.5200005       1.81431296E-05
   26.6399994       1.86880898E-05
   26.7600002       1.92427597E-05
   26.8799992       1.98070411E-05
   27.0000000       2.03808340E-05
   27.1200008       2.09640220E-05
   27.2399998       2.15564796E-05
   27.3600006       2.21580667E-05
   27.4799995       2.27686160E-05
   27.6000004       2.33879418E-05
   27.7199993       2.40158406E-05
   27.8400002       2.46520794E-05
   27.9599991       2.52964128E-05
   28.0799999       2.59485769E-05
   28.2000008       2.66082952E-05
   28.3199997       2.72752750E-05
   28.4400005       2.79492142E-05
   28.5599995       2.86297964E-05
   28.6800003       2.93166977E-05
   28.7999992       3.00095817E-05
   28.9200001       3.07081027E-05
   29.0400009       3.14119025E-05
   29.1599998       3.21206026E-05
   29.2800007       3.28338137E-05
   29.3999996       3.35511286E-05
   29.5200005       3.42721069E-05
   29.6399994       3.49962938E-05
   29.7600002       3.57231947E-05
   29.8799992       3.64523039E-05
   30.0000000       3.71830829E-05
   30.1200008       3.79149969E-05
   30.2399998       3.86474967E-05
   30.3600006       3.93800256E-05
   30.4799995       4.01120233E-05
   30.6000004       4.08429296E-05
   30.7199993       4.15721770E-05
   30.8400002       4.22991798E-05
   30.9599991       4.30233486E-05
   31.0799999       4.37440685E-05
   31.2000008       4.44607031E-05
   31.3199997       4.51726082E-05
   31.4400005       4.58791292E-05
   31.5599995       4.65795965E-05
   31.6800003       4.72733591E-05
   31.7999992       4.79597547E-05
   31.9200001       4.86381105E-05
   32.0400009       4.93077714E-05
   32.1599998       4.99680536E-05
   32.2799988       5.06182660E-05
   32.4000015       5.12576880E-05
   32.5200005       5.18855886E-05
   32.6399994       5.25012219E-05
   32.7599983       5.31038349E-05
   32.8800011       5.36926746E-05
   33.0000000       5.42670059E-05
   33.1199989       5.48260941E-05
   33.2400017       5.53692335E-05
   33.3600006       5.58957108E-05
   33.4799995       5.64048314E-05
   33.5999985       5.68958967E-05
   33.7200012       5.73682119E-05
   33.8400002       5.78210820E-05
   33.9599991       5.82538087E-05
   34.0800018       5.86656934E-05
   34.2000008       5.90560594E-05
   34.3199997       5.94242229E-05
   34.4399986       5.97695216E-05
   34.5600014       6.00913008E-05
   34.6800003       6.03889202E-05
   34.7999992       6.06617432E-05
   34.9199982       6.09091585E-05
   35.0400009       6.11305586E-05
   35.1599998       6.13253724E-05
   35.2799988       6.14930250E-05
   35.4000015       6.16329635E-05
   35.5200005       6.17446422E-05
   35.6399994       6.18275444E-05
   35.7599983       6.18811464E-05
   35.8800011       6.19049606E-05
   36.0000000       6.18985068E-05
   36.1199989       6.18613267E-05
   36.2400017       6.17929982E-05
   36.3600006       6.16931284E-05
   36.4799995       6.15613244E-05
   36.5999985       6.13972443E-05
   36.7200012       6.12005388E-05
   36.8400002       6.09708768E-05
   36.9599991       6.07079419E-05
   37.0800018       6.04114321E-05
   37.2000008       6.00810781E-05
   37.3199997       5.97166327E-05
   37.4399986       5.93179102E-05
   37.5600014       5.88847506E-05
   37.6800003       5.84170593E-05
   37.7999992       5.79147636E-05
   37.9199982       5.73778125E-05
   38.0400009       5.68061914E-05
   38.1599998       5.61998713E-05
   38.2799988       5.55588449E-05
   38.4000015       5.48830976E-05
   38.5200005       5.41726477E-05
   38.6399994       5.34275277E-05
   38.7599983       5.26478252E-05
   38.8800011       5.18336528E-05
   39.0000000       5.09851779E-05
   39.1199989       5.01025970E-05
   39.2400017       4.91861465E-05
   39.3600006       4.82360811E-05
   39.4799995       4.72526663E-05
   39.5999985       4.62362004E-05
   39.7200012       4.51869746E-05
   39.8400002       4.41053271E-05
   39.9599991       4.29916108E-05
   40.0800018       4.18462441E-05
   40.2000008       4.06696672E-05
   40.3199997       3.94623676E-05
   40.4399986       3.82248581E-05
   40.5600014       3.69576810E-05
   40.6800003       3.56613818E-05
   40.7999992       3.43365136E-05
   40.9199982       3.29836403E-05
   41.0400009       3.16033293E-05
   41.1599998       3.01961827E-05
   41.2799988       2.87628100E-05
   41.4000015       2.73038586E-05
   41.5200005       2.58200107E-05
   41.6399994       2.43119794E-05
   41.7599983       2.27805122E-05
   41.8800011       2.12263785E-05
   42.0000000       1.96503679E-05
   42.1199989       1.80532879E-05
   42.2400017       1.64359517E-05
   42.3600006       1.47991777E-05
   42.4799995       1.31437992E-05
   42.5999985       1.14706536E-05
   42.7200012       9.78059052E-06
   42.8400002       8.07447486E-06
   42.9599991       6.35319157E-06
   43.0800018       4.61764648E-06
   43.2000008       2.86876639E-06
   43.3199997       1.10749522E-06
   43.4399986      -6.65211985E-07
   43.5600014      -2.44839589E-06
   43.6800003      -4.24109703E-06
   43.7999992      -6.04236084E-06
   43.9199982      -7.85123666E-06
   44.0400009      -9.66677999E-06
   44.1599998      -1.14880495E-05
   44.2799988      -1.33141093E-05
   44.4000015      -1.51440254E-05
   44.5200005      -1.69768737E-05
   44.6399994      -1.88117410E-05
   44.7599983      -2.06477307E-05
   44.8800011      -2.24839623E-05
   45.0000000      -2.43195700E-05
   45.1199989      -2.61536952E-05
   45.2400017      -2.79854830E-05
   45.3600006      -2.98140731E-05
   45.4799995      -3.16385958E-05
   45.5999985      -3.34581746E-05
   45.7200012      -3.52719180E-05
   45.8400002      -3.70789421E-05
   45.9599991      -3.88783883E-05
   46.0800018      -4.06694307E-05
   46.2000008      -4.24512982E-05
   46.3199997      -4.42232813E-05
   46.4399986      -4.59847142E-05
   46.5600014      -4.77349968E-05
   46.6800003      -4.94735541E-05
   46.7999992      -5.11998333E-05
   46.9199982      -5.29132885E-05
   47.0400009      -5.46133706E-05
   47.1599998      -5.62995156E-05
   47.2799988      -5.79711814E-05
   47.4000015      -5.96278260E-05
   47.5200005      -6.12689473E-05
   47.6399994      -6.28940907E-05
   47.7599983      -6.45028631E-05
   47.8800011      -6.60949590E-05
   48.0000000      -6.76701238E-05
   48.1199989      -6.92282047E-05
   48.2400017      -7.07691070E-05
   48.3600006      -7.22927725E-05
   48.4799995      -7.37992013E-05
   48.5999985      -7.52884152E-05
   48.7200012      -7.67604652E-05
   48.8400002      -7.82153802E-05
   48.9599991      -7.96532404E-05
   49.0800018      -8.10741622E-05
   49.2000008      -8.24783128E-05
   49.3199997      -8.38659398E-05
   49.4399986      -8.52373778E-05
   49.5600014      -8.65930342E-05
   49.6800003      -8.79334184E-05
   49.7999992      -8.92590906E-05
   49.9199982      -9.05706620E-05
   50.0400009      -9.18688238E-05
   50.1599998      -9.31542745E-05
   50.2799988      -9.44277635E-05
   50.4000015      -9.56900840E-05
   50.5200005      -9.69420653E-05
   50.6399994      -9.81845733E-05
   50.7599983      -9.94185539E-05
   50.8800011      -1.00644982E-04
   51.0000000      -1.01864891E-04
   51.1199989      -1.03079401E-04
   51.2400017      -1.04289677E-04
   51.3600006      -1.05496969E-04
   51.4799995      -1.06702595E-04
   51.5999985      -1.07907923E-04
   51.7200012      -1.09114386E-04
   51.8400002      -1.10323454E-04
   51.9599991      -1.11536676E-04
   52.0800018      -1.12755595E-04
   52.2000008      -1.13981820E-04
   52.3199997      -1.15217008E-04
   52.4399986      -1.16462827E-04
   52.5600014      -1.17721007E-04
   52.6800003      -1.18993310E-04
   52.7999992      -1.20281533E-04
   52.9199982      -1.21587516E-04
   53.0400009      -1.22913116E-04
   53.1599998      -1.24260216E-04
   53.2799988      -1.25630730E-04
   53.4000015      -1.27026637E-04
   53.5200005      -1.28449930E-04
   53.6399994      -1.29902648E-04
   53.7599983      -1.31386885E-04
   53.8800011      -1.32904708E-04
   54.0000000      -1.34458256E-04
   54.1199989      -1.36049595E-04
   54.2400017      -1.37680836E-04
   54.3600006      -1.39354030E-04
   54.4799995      -1.41071287E-04
   54.5999985      -1.42834630E-04
   54.7200012      -1.44646125E-04
   54.8400002      -1.46507839E-04
   54.9599991      -1.48421837E-04
   55.0800018      -1.50390231E-04
   55.2000008      -1.52415043E-04
   55.3199997      -1.54498368E-04
   55.4399986      -1.56642229E-04
   55.5600014      -1.58848619E-04
   55.6800003      -1.61119562E-04
   55.7999992      -1.63456934E-04
   55.9199982      -1.65862613E-04
   56.0400009      -1.68338433E-04
   56.1599998      -1.70886153E-04
   56.2799988      -1.73507447E-04
   56.4000015      -1.76203976E-04
   56.5200005      -1.78977309E-04
   56.6399994      -1.81828975E-04
   56.7599983      -1.84760429E-04
   56.8800011      -1.87773156E-04
   57.0000000      -1.90868494E-04
   57.1199989      -1.94047752E-04
   57.2400017      -1.97312125E-04
   57.3600006      -2.00662689E-04
   57.4799995      -2.04100477E-04
   57.5999985      -2.07626304E-04
   57.7200012      -2.11241000E-04
   57.8400002      -2.14945234E-04
   57.9599991      -2.18739660E-04
   58.0800018      -2.22624833E-04
   58.2000008      -2.26601216E-04
   58.3199997      -2.30669189E-04
   58.4399986      -2.34829000E-04
   58.5600014      -2.39080735E-04
   58.6800003      -2.43424409E-04
   58.7999992      -2.47859803E-04
   58.9199982      -2.52386671E-04
   59.0400009      -2.57004547E-04
   59.1599998      -2.61712907E-04
   59.2799988      -2.66511081E-04
   59.4000015      -2.71398312E-04
   59.5200005      -2.76373699E-04
   59.6399994      -2.81436194E-04
   59.7599983      -2.86584662E-04
   59.8800011      -2.91817792E-04
   60.0000000      -2.97134189E-04
   60.1199989      -3.02532251E-04
   60.2400017      -3.08010320E-04
   60.3600006      -3.13566474E-04
   60.4799995      -3.19198647E-04
   60.5999985      -3.24904599E-04
   60.7200012      -3.30681971E-04
   60.8400002      -3.36528290E-04
   60.9599991      -3.42440966E-04
   61.0800018      -3.48417263E-04
   61.2000008      -3.54454358E-04
   61.3199997      -3.60549224E-04
   61.4399986      -3.66698747E-04
   61.5600014      -3.72899580E-04
   61.6800003      -3.79148318E-04
   61.7999992      -3.85441439E-04
   61.9199982      -3.91775160E-04
   62.0400009      -3.98145668E-04
   62.1599998      -4.04548889E-04
   62.2799988      -4.10980720E-04
   62.4000015      -4.17436851E-04
   62.5200005      -4.23912832E-04
   62.6399994      -4.30404063E-04
   62.7599983      -4.36905830E-04
   62.8800011      -4.43413388E-04
   63.0000000      -4.49921878E-04
   63.1199989      -4.56426293E-04
   63.2400017      -4.62921598E-04
   63.3600006      -4.69402556E-04
   63.4799995      -4.75863897E-04
   63.5999985      -4.82300238E-04
   63.7200012      -4.88706050E-04
   63.8400002      -4.95075772E-04
   63.9599991      -5.01403643E-04
   64.0800018      -5.07683842E-04
   64.1999969      -5.13910432E-04
   64.3199997      -5.20077534E-04
   64.4400024      -5.26178977E-04
   64.5599976      -5.32208767E-04
   64.6800003      -5.38160559E-04
   64.8000031      -5.44028357E-04
   64.9199982      -5.49805874E-04
   65.0400009      -5.55486826E-04
   65.1600037      -5.61064982E-04
   65.2799988      -5.66534116E-04
   65.4000015      -5.71887882E-04
   65.5199966      -5.77119819E-04
   65.6399994      -5.82223525E-04
   65.7600021      -5.87192422E-04
   65.8799973      -5.92020107E-04
   66.0000000      -5.96700236E-04
   66.1200027      -6.01226406E-04
   66.2399979      -6.05592446E-04
   66.3600006      -6.09791896E-04
   66.4800034      -6.13818702E-04
   66.5999985      -6.17666519E-04
   66.7200012      -6.21329236E-04
   66.8399963      -6.24800683E-04
   66.9599991      -6.28074806E-04
   67.0800018      -6.31145609E-04
   67.1999969      -6.34007389E-04
   67.3199997      -6.36654266E-04
   67.4400024      -6.39080594E-04
   67.5599976      -6.41280785E-04
   67.6800003      -6.43249543E-04
   67.8000031      -6.44981395E-04
   67.9199982      -6.46471221E-04
   68.0400009      -6.47713896E-04
   68.1600037      -6.48704707E-04
   68.2799988      -6.49438880E-04
   68.4000015      -6.49911759E-04
   68.5199966      -6.50119036E-04
   68.6399994      -6.50056463E-04
   68.7600021      -6.49720023E-04
   68.8799973      -6.49105932E-04
   69.0000000      -6.48210349E-04
   69.1200027      -6.47030014E-04
   69.2399979      -6.45561726E-04
   69.3600006      -6.43802574E-04
   69.4800034      -6.41749939E-04
   69.5999985      -6.39401493E-04
   69.7200012      -6.36755140E-04
   69.8399963      -6.33808901E-04
   69.9599991      -6.30561088E-04
   70.0800018      -6.27010129E-04
   70.1999969      -6.23154861E-04
   70.3199997      -6.18994294E-04
   70.4400024      -6.14527846E-04
   70.5599976      -6.09755341E-04
   70.6800003      -6.04676781E-04
   70.8000031      -5.99292514E-04
   70.9199982      -5.93603239E-04
   71.0400009      -5.87609713E-04
   71.1600037      -5.81313332E-04
   71.2799988      -5.74715494E-04
   71.4000015      -5.67818119E-04
   71.5199966      -5.60623594E-04
   71.6399994      -5.53134421E-04
   71.7600021      -5.45353629E-04
   71.8799973      -5.37284359E-04
   72.0000000      -5.28930046E-04
   72.1200027      -5.20294532E-04
   72.2399979      -5.11381950E-04
   72.3600006      -5.02196723E-04
   72.4800034      -4.92743624E-04
   72.5999985      -4.83027863E-04
   72.7200012      -4.73054999E-04