  -30.0000000       0.00000000    
  -29.8799992       0.00000000    
  -29.7600002       0.00000000    
  -29.6399994       0.00000000    
  -29.5200005       0.00000000    
  -29.3999996       0.00000000    
  -29.2800007      -7.00649232E-45
  -29.1599998      -4.76441478E-44
  -29.0400009      -3.78350585E-43
  -28.9200001       5.49308998E-43
  -28.7999992       1.64050011E-41
  -28.6800003       1.29302013E-40
  -28.5599995       5.67321288E-40
  -28.4400005       1.35822956E-39
  -28.3199997       3.30728858E-40
  -28.2000008      -1.11321210E-38
  -28.0799999      -4.91646855E-38
  -27.9599991      -1.17904401E-37
  -27.8400002      -1.48508053E-37
  -27.7199993       8.55345128E-38
  -27.6000004       9.55636675E-37
  -27.4799995       2.63696049E-36
  -27.3600006       4.28234120E-36
  -27.2399998       3.04767681E-36
  -27.1200008      -5.80711177E-36
  -27.0000000      -2.58841331E-35
  -26.8799992      -5.27179944E-35
  -26.7600002      -6.54774805E-35
  -26.6399994      -2.51738429E-35
  -26.5200005       1.09365469E-34
  -26.3999996       3.41179843E-34
  -26.2800007       5.80959155E-34
  -26.1599998       6.15000231E-34
  -26.0400009       1.49962245E-34
  -25.9200001      -1.02318206E-33
  -25.7999992      -2.76398983E-33
  -25.6800003      -4.33385151E-33
  -25.5599995      -4.37265274E-33
  -25.4400005      -1.31566360E-33
  -25.3199997       5.68138938E-33
  -25.2000008       1.55442245E-32
  -25.0799999       2.44010058E-32
  -24.9599991       2.58248703E-32
  -24.8400002       1.28406815E-32
  -24.7199993      -1.83110326E-32
  -24.6000004      -6.36938910E-32
  -24.4799995      -1.08560242E-31
  -24.3600006      -1.28159623E-31
  -24.2399998      -9.44053678E-32
  -24.1200008       1.16258419E-32
  -24.0000000       1.84356870E-31
  -23.8799992       3.81558037E-31
  -23.7600002       5.23075144E-31
  -23.6399994       5.07018079E-31
  -23.5200005       2.45257492E-31
  -23.3999996      -2.87884797E-31
  -23.2800007      -1.00905893E-30
  -23.1599998      -1.70365920E-30
  -23.0400009      -2.05064331E-30
  -22.9200001      -1.70767224E-30
  -22.7999992      -4.49777052E-31
  -22.6800003       1.67236265E-30
  -22.5599995       4.21403590E-30
  -22.4400005       6.32941905E-30
  -22.3199997       6.93324624E-30
  -22.2000008       5.04245097E-30
  -22.0799999       2.35658123E-31
  -21.9599991      -6.91201813E-30
  -21.8400002      -1.46159606E-29
  -21.7199993      -2.00801112E-29
  -21.6000004      -2.02008264E-29
  -21.4799995      -1.26942752E-29
  -21.3600006       2.65017289E-30
  -21.2399998       2.30619879E-29
  -21.1200008       4.27374778E-29
  -21.0000000       5.39896543E-29
  -20.8799992       4.95731449E-29
  -20.7600002       2.56623575E-29
  -20.6399994      -1.54879720E-29
  -20.5200005      -6.43692792E-29
  -20.3999996      -1.05487878E-28
  -20.2800007      -1.21363487E-28
  -20.1599998      -9.85585381E-29
  -20.0400009      -3.40325664E-29
  -19.9200001       6.05223786E-29
  -19.7999992       1.58634877E-28
  -19.6800003       2.24612735E-28
  -19.5599995       2.24312844E-28
  -19.4400005       1.38674178E-28
  -19.3199997      -2.41901495E-29
  -19.2000008      -2.23315622E-28
  -19.0799999      -3.89836676E-28
  -18.9599991      -4.44299712E-28
  -18.8400002      -3.24181893E-28
  -18.7199993      -1.49976453E-29
  -18.6000004       4.25352558E-28
  -18.4799995       8.60794196E-28
  -18.3600006       1.09946343E-27
  -18.2399998       9.47322569E-28
  -18.1200008       2.85648031E-28
  -18.0000000      -8.47135886E-28
  -17.8799992      -2.19901718E-27
  -17.7600002      -3.30661487E-27
  -17.6399994      -3.58179521E-27
  -17.5200005      -2.48762953E-27
  -17.3999996       2.23518013E-28
  -17.2800007       4.27339241E-27
  -17.1599998       8.71497012E-27
  -17.0400009       1.19819089E-26
  -16.9200001       1.22005944E-26
  -16.7999992       7.76720382E-27
  -16.6800003      -1.90719411E-27
  -16.5599995      -1.56882571E-26
  -16.4400005      -3.03309931E-26
  -16.3199997      -4.07070993E-26
  -16.2000008      -4.08452055E-26
  -16.0799999      -2.57705928E-26
  -15.9600000       6.17108822E-27
  -15.8400002       5.11436459E-26
  -15.7200003       9.86748635E-26
  -15.6000004       1.32427448E-25
  -15.4799995       1.33482562E-25
  -15.3599997       8.60851304E-26
  -15.2399998      -1.51202510E-26
  -15.1199999      -1.58319318E-25
  -15.0000000      -3.10900634E-25
  -14.8800001      -4.21723462E-25
  -14.7600002      -4.31147786E-25
  -14.6400003      -2.88730043E-25
  -14.5200005       2.43242333E-26
  -14.3999996       4.73891080E-25
  -14.2799997       9.61037884E-25
  -14.1599998       1.32802465E-24
  -14.0400000       1.38811130E-24
  -13.9200001       9.79207125E-25
  -13.8000002       3.28845512E-26
  -13.6800003      -1.35897778E-24
  -13.5600004      -2.90469590E-24
  -13.4399996      -4.12651641E-24
  -13.3199997      -4.44632220E-24
  -13.1999998      -3.34481086E-24
  -13.0799999      -5.70397908E-25
  -12.9600000       3.65381912E-24
  -12.8400002       8.49847978E-24
  -12.7200003       1.25507060E-23
  -12.6000004       1.40503195E-23
  -12.4799995       1.13497592E-23
  -12.3599997       3.53447748E-24
  -12.2399998      -8.94222035E-24
  -12.1199999      -2.38234905E-23
  -12.0000000      -3.70482150E-23
  -11.8800001      -4.33712507E-23
  -11.7600002      -3.76554833E-23
  -11.6400003      -1.66767672E-23
  -11.5200005       1.89608525E-23
  -11.3999996       6.34096304E-23
  -11.2799997       1.05357296E-22
  -11.1599998       1.29577484E-22
  -11.0400000       1.20462140E-22
  -10.9200001       6.71562400E-23
  -10.8000002      -3.07910050E-23
  -10.6800003      -1.58970581E-22
  -10.5600004      -2.86865772E-22
  -10.4399996      -3.71557879E-22
  -10.3199997      -3.67158231E-22
  -10.1999998      -2.39100105E-22
  -10.0799999       1.95916430E-23
  -9.96000004       3.74792688E-22
  -9.84000015       7.46265900E-22
  -9.72000027       1.01630962E-21
  -9.60000038       1.05466003E-21
  -9.47999954       7.57720514E-22
  -9.35999966       9.44729660E-23
  -9.23999977      -8.53998753E-22
  -9.11999989      -1.87759821E-21
  -9.00000000      -2.65798576E-21
  -8.88000011      -2.83523930E-21
  -8.76000023      -2.11606412E-21
  -8.64000034      -4.02919050E-22
  -8.52000046       2.09251391E-21
  -8.39999962       4.79798077E-21
  -8.27999973       6.83572769E-21
  -8.15999985       7.20965856E-21
  -8.03999996       5.11453083E-21
  -7.92000008       3.09505272E-22
  -7.80000019      -6.54982127E-21
  -7.67999983      -1.37587455E-20
  -7.55999994      -1.87255111E-20
  -7.44000006      -1.85319299E-20
  -7.32000017      -1.08720653E-20
  -7.19999981       4.79619272E-21
  -7.07999992       2.62044436E-20
  -6.96000004       4.77609207E-20
  -6.84000015       6.10121828E-20
  -6.71999979       5.63827114E-20
  -6.59999990       2.61874251E-20
  -6.48000002      -3.15404291E-20
  -6.36000013      -1.09371901E-19
  -6.23999977      -1.88337949E-19
  -6.11999989      -2.38839949E-19
  -6.00000000      -2.25821057E-19
  -5.88000011      -1.18526271E-19
  -5.76000023       9.62340438E-20
  -5.63999987       4.00127451E-19
  -5.51999998       7.33077961E-19
  -5.40000010       9.92128078E-19
  -5.28000021       1.04433000E-18
  -5.15999985       7.56388996E-19
  -5.03999996       3.96079442E-20
  -4.92000008      -1.09702575E-18
  -4.80000019      -2.49889361E-18
  -4.67999983      -3.84103385E-18
  -4.55999994      -4.64610600E-18
  -4.44000006      -4.36035811E-18
  -4.32000017      -2.49204476E-18
  -4.19999981       1.20059362E-18
  -4.07999992       6.50623957E-18
  -3.96000004       1.25977614E-17
  -3.83999991       1.79792984E-17
  -3.72000003       2.06120786E-17
  -3.59999990       1.82664657E-17
  -3.48000002       9.10220530E-18
  -3.35999990      -7.58787417E-18
  -3.24000001      -3.06136732E-17
  -3.11999989      -5.63178641E-17
  -3.00000000      -7.84567444E-17
  -2.88000011      -8.87752336E-17
  -2.75999999      -7.84309165E-17
  -2.64000010      -4.02501288E-17
  -2.51999998       2.84433167E-17
  -2.40000010       1.22962502E-16
  -2.27999997       2.29138559E-16
  -2.16000009       3.22870987E-16
  -2.03999996       3.72215235E-16
  -1.91999996       3.42560426E-16
  -1.79999995       2.04851252E-16
  -1.67999995      -5.40342335E-17
  -1.55999994      -4.20596778E-16
  -1.44000006      -8.46432507E-16
  -1.32000005      -1.24557942E-15
  -1.20000005      -1.50059171E-15
  -1.08000004      -1.47945390E-15
 -0.959999979      -1.06350672E-15
 -0.839999974      -1.83796528E-16
 -0.720000029       1.13995388E-15
 -0.600000024       2.76656864E-15
 -0.479999989       4.41763511E-15
 -0.360000014       5.68957367E-15
 -0.239999995       6.10180978E-15
 -0.119999997       5.18362099E-15
  -1.11022302E-15   2.59375930E-15
  0.119999997      -1.74335622E-15
  0.239999995      -7.51136197E-15
  0.360000014      -1.39198811E-14
  0.479999989      -1.97034670E-14
  0.600000024      -2.32330160E-14
  0.720000029      -2.27564007E-14
  0.839999974      -1.67608288E-14
  0.959999979      -4.41825726E-15
   1.08000004       1.39584152E-14
   1.20000005       3.65496004E-14
   1.32000005       5.98708705E-14
   1.44000006       7.89343363E-14
   1.55999994       8.78089715E-14
   1.67999995       8.05974889E-14
   1.79999995       5.27602694E-14
   1.91999996       2.61524260E-15
   2.03999996      -6.72552359E-14
   2.16000009      -1.49031449E-13
   2.27999997      -2.29479277E-13
   2.40000010      -2.90880574E-13
   2.51999998      -3.13247394E-13
   2.64000010      -2.77779671E-13
   2.75999999      -1.71247700E-13
   2.88000011       9.32040835E-15
   3.00000000       2.52530418E-13
   3.11999989       5.30140331E-13
   3.24000001       7.97247956E-13
   3.35999990       9.95965463E-13
   3.48000002       1.06293598E-12
   3.59999990       9.40370828E-13
   3.72000003       5.89468795E-13
   3.83999991       4.24727604E-15
   3.96000004      -7.76860726E-13
   4.07999992      -1.66463523E-12
   4.19999981      -2.52076398E-12
   4.32000017      -3.16967850E-12
   4.44000006      -3.42121709E-12
   4.55999994      -3.10287625E-12
   4.67999983      -2.09819878E-12
   4.80000019      -3.85666867E-13
   4.92000008       1.92919270E-12
   5.03999996       4.59653539E-12
   5.15999985       7.22718500E-12
   5.28000021       9.32514049E-12
   5.40000010       1.03491000E-11
   5.51999998       9.79948241E-12
   5.63999987       7.32173003E-12
   5.76000023       2.81123280E-12
   5.88000011      -3.49892424E-12
   6.00000000      -1.09879293E-11
   6.11999989      -1.86538614E-11
   6.23999977      -2.51904660E-11
   6.36000013      -2.91383619E-11
   6.48000002      -2.91026682E-11
   6.59999990      -2.40152256E-11
   6.71999979      -1.34062917E-11
   6.84000015       2.35960795E-12
   6.96000004       2.19336823E-11
   7.07999992       4.29657282E-11
   7.19999981       6.22549373E-11
   7.32000017       7.60831745E-11
   7.44000006       8.07172315E-11
   7.55999994       7.30348421E-11
   7.67999983       5.11978307E-11
   7.80000019       1.52706858E-11
   7.92000008      -3.23312245E-11
   8.03999996      -8.66767075E-11
   8.15999985      -1.40528436E-10
   8.27999973      -1.84977117E-10
   8.39999962      -2.10491763E-10
   8.52000046      -2.08308593E-10
   8.64000034      -1.72010337E-10
   8.76000023      -9.90862462E-11
   8.88000011       7.77748872E-12
   9.00000000       1.39936229E-10
   9.11999989       2.82784157E-10
   9.23999977       4.16668949E-10
   9.35999966       5.18773635E-10
   9.47999954       5.65877956E-10
   9.60000038       5.37761280E-10
   9.72000027       4.20869423E-10
   9.84000015       2.11754544E-10
   9.96000004      -8.02582723E-11
   10.0799999      -4.31713942E-10
   10.1999998      -8.05422840E-10
   10.3199997      -1.15288146E-09
   10.4399996      -1.41875001E-09
   10.5600004      -1.54713908E-09
   10.6800003      -1.48916057E-09
   10.8000002      -1.21093702E-09
   10.9200001      -7.01068481E-10
   11.0400000       2.35298864E-11
   11.1599998       9.14458176E-10
   11.2799997       1.89217286E-09
   11.3999996       2.85034907E-09
   11.5200005       3.66432795E-09
   11.6400003       4.20319557E-09
   11.7600002       4.34452296E-09
   11.8800001       3.99033118E-09
   12.0000000       3.08251447E-09
   12.1199999       1.61580394E-09
   12.2399998      -3.53567342E-10
   12.3599997      -2.70502132E-09
   12.4799995      -5.25759747E-09
   12.6000004      -7.78099007E-09
   12.7200003      -1.00131086E-08
   12.8400002      -1.16827872E-08
   12.9600000      -1.25355442E-08
   13.0799999      -1.23597657E-08
   13.1999998      -1.10104512E-08
   13.3199997      -8.42777492E-09
   13.4399996      -4.64819161E-09
   13.5600004       1.93417282E-10
   13.6800003       5.87095261E-09
   13.8000002       1.20829027E-08
   13.9200001       1.84747897E-08
   14.0400000       2.46653080E-08
   14.1599998       3.02725027E-08
   14.2799997       3.49361748E-08
   14.3999996       3.83330310E-08
   14.5200005       4.01820550E-08
   14.6400003       4.02390086E-08
   14.7600002       3.82810121E-08
   14.8800001       3.40842021E-08
   15.0000000       2.73996505E-08
   15.1199999       1.79346173E-08
   15.2399998       5.34751310E-09
   15.3599997      -1.07347002E-08
   15.4799995      -3.06684420E-08
   15.6000004      -5.47085151E-08
   15.7200003      -8.28827709E-08
   15.8400002      -1.14827358E-07
   15.9600000      -1.49588388E-07
   16.0799999      -1.85401447E-07
   16.2000008      -2.19465804E-07
   16.3199997      -2.47735386E-07
   16.4400005      -2.64752202E-07
   16.5599995      -2.63550248E-07
   16.6800003      -2.35657794E-07
   16.7999992      -1.71223945E-07
   16.9200001      -5.92884462E-08
   17.0400009       1.11792396E-07
   17.1599998       3.53762800E-07
   17.2800007       6.77738967E-07
   17.3999996       1.09335951E-06
   17.5200005       1.60785305E-06
   17.6399994       2.22507629E-06
   17.7600002       2.94458277E-06
   17.8799992       3.76079447E-06
   18.0000000       4.66234542E-06
   18.1200008       5.63167532E-06
   18.2399998       6.64492563E-06
   18.3600006       7.67220081E-06
   18.4799995       8.67821382E-06
   18.6000004       9.62333343E-06
   18.7199993       1.04650071E-05
   18.8400002       1.11595173E-05
   18.9599991       1.16640040E-05
   19.0799999       1.19386432E-05
   19.2000008       1.19488750E-05
   19.3199997       1.16675446E-05
   19.4400005       1.10768269E-05
   19.5599995       1.01697997E-05
   19.6800003       8.95155063E-06
   19.7999992       7.43971714E-06
   19.9200001       5.66441076E-06
   20.0400009       3.66747690E-06
   20.1599998       1.50112294E-06
   20.2800007      -7.74043372E-07
   20.3999996      -3.09146708E-06
   20.5200005      -5.38146423E-06
   20.6399994      -7.57425187E-06
   20.7600002      -9.60302532E-06
   20.8799992      -1.14068989E-05
   21.0000000      -1.29335513E-05
   21.1200008      -1.41414293E-05
   21.2399998      -1.50013802E-05
   21.3600006      -1.54976406E-05
   21.4799995      -1.56281330E-05
   21.6000004      -1.54040899E-05
   21.7199993      -1.48490153E-05
   21.8400002      -1.39971262E-05
   21.9599991      -1.28913307E-05
   22.0799999      -1.15809225E-05
   22.2000008      -1.01191245E-05
   22.3199997      -8.56062888E-06
   22.4400005      -6.95928111E-06
   22.5599995      -5.36601465E-06
   22.6800003      -3.82713324E-06
   22.7999992      -2.38299458E-06
   22.9200001      -1.06712741E-06
   23.0400009       9.42384517E-08
   23.1599998       1.08225356E-06
   23.2800007       1.88520676E-06
   23.3999996       2.49803156E-06
   23.5200005       2.92164009E-06
   23.6399994       3.16216165E-06
   23.7600002       3.23016093E-06
   23.8799992       3.13988562E-06
   24.0000000       2.90858475E-06
   24.1200008       2.55591840E-06
   24.2399998       2.10345229E-06
   24.3600006       1.57422721E-06
   24.4799995       9.92373316E-07
   24.6000004       3.82729553E-07
   24.7199993      -2.29560001E-07
   24.8400002      -8.19511854E-07
   24.9599991      -1.36284848E-06
   25.0799999      -1.83663303E-06
   25.2000008      -2.21998698E-06
   25.3199997      -2.49486743E-06
   25.4400005      -2.64686332E-06
   25.5599995      -2.66596749E-06
   25.6800003      -2.54726115E-06
   25.7999992      -2.29145348E-06
   25.9200001      -1.90522053E-06
   26.0400009      -1.40128498E-06
   26.1599998      -7.98211545E-07
   26.2800007      -1.19885783E-07
   26.3999996       6.05318803E-07
   26.5200005       1.34566767E-06
   26.6399994       2.06744562E-06
   26.7600002       2.73652768E-06
   26.8799992       3.32006357E-06
   27.0000000       3.78818640E-06
   27.1200008       4.11564451E-06
   27.2399998       4.28326121E-06
   27.3600006       4.27912983E-06
   27.4799995       4.09945687E-06
   27.6000004       3.74899764E-06
   27.7199993       3.24103826E-06
   27.8400002       2.59690910E-06
   27.9599991       1.84504074E-06
   28.0799999       1.01960916E-06
   28.2000008       1.58833203E-07
   28.3199997      -6.96980806E-07
   28.4400005      -1.50753692E-06
   28.5599995      -2.23466850E-06
   28.6800003      -2.84435373E-06
   28.7999992      -3.30850617E-06
   28.9200001      -3.60643708E-06
   29.0400009      -3.72589852E-06
   29.1599998      -3.66365566E-06
   29.2800007      -3.42555290E-06
   29.3999996      -3.02607964E-06
   29.5200005      -2.48747278E-06
   29.6399994      -1.83841462E-06
   29.7600002      -1.11241650E-06
   29.8799992      -3.45991111E-07
   30.0000000       4.23274372E-07
   30.1200008       1.15863020E-06
   30.2399998       1.82595443E-06
   30.3600006       2.39533142E-06
   30.4799995       2.84234397E-06
   30.6000004       3.14903446E-06
   30.7199993       3.30450507E-06
   30.8400002       3.30515809E-06
   30.9599991       3.15459260E-06
   31.0799999       2.86318914E-06
   31.2000008       2.44743023E-06
   31.3199997       1.92900120E-06
   31.4400005       1.33372839E-06
   31.5599995       6.90400327E-07
   31.6800003       2.95212761E-08
   31.7999992      -6.17963735E-07
   31.9200001      -1.22193569E-06
   32.0400009      -1.75432763E-06
   32.1599998      -2.19027902E-06
   32.2799988      -2.50918583E-06
   32.4000015      -2.69561497E-06
   32.5200005      -2.74004447E-06
   32.6399994      -2.63939023E-06
   32.7599983      -2.39728820E-06
   32.8800011      -2.02408819E-06
   33.0000000      -1.53654400E-06
   33.1199989      -9.57180305E-07
   33.2400017      -3.13347670E-07
   33.3600006       3.64014454E-07
   33.4799995       1.04185483E-06
   33.5999985       1.68666293E-06
   33.7200012       2.26620955E-06
   33.8400002       2.75127718E-06
   33.9599991       3.11727649E-06
   34.0800018       3.34564402E-06
   34.2000008       3.42492945E-06
   34.3199997       3.35149662E-06
   34.4399986       3.12978796E-06
   34.5600014       2.77212666E-06
   34.6800003       2.29807279E-06
   34.7999992       1.73336423E-06
   34.9199982       1.10851352E-06
   35.0400009       4.57147735E-07
   35.1599998      -1.85809171E-07
   35.2799988      -7.86001465E-07
   35.4000015      -1.31144850E-06
   35.5200005      -1.73419573E-06
   35.6399994      -2.03172476E-06
   35.7599983      -2.18805940E-06
   35.8800011      -2.19451931E-06
   36.0000000      -2.05010087E-06
   36.1199989      -1.76147410E-06
   36.2400017      -1.34261461E-06
   36.3600006      -8.14091209E-07
   36.4799995      -2.02054565E-07
   36.5999985       4.63027959E-07
   36.7200012       1.14783165E-06
   36.8400002       1.81776420E-06
   36.9599991       2.43861950E-06
   37.0800018       2.97822203E-06
   37.2000008       3.40798715E-06
   37.3199997       3.70432781E-06
   37.4399986       3.84983059E-06
   37.5600014       3.83414499E-06
   37.6800003       3.65452001E-06
   37.7999992       3.31596425E-06
   37.9199982       2.83099575E-06
   38.0400009       2.21899813E-06
   38.1599998       1.50520543E-06
   38.2799988       7.19374952E-07
   38.4000015      -1.05773992E-07
   38.5200005      -9.36253969E-07
   38.6399994      -1.73852823E-06
   38.7599983      -2.48113770E-06
   38.8800011      -3.13612895E-06
   39.0000000      -3.68019187E-06
   39.1199989      -4.09543827E-06
   39.2400017      -4.36978507E-06
   39.3600006      -4.49694744E-06
   39.4799995      -4.47606817E-06
   39.5999985      -4.31106128E-06
   39.7200012      -4.00975705E-06
   39.8400002      -3.58296234E-06
   39.9599991      -3.04354876E-06
   40.0800018      -2.40566646E-06
   40.2000008      -1.68417421E-06
   40.3199997      -8.94329446E-07
   40.4399986      -5.17529841E-08
   40.5600014       8.27357951E-07
   40.6800003       1.72583475E-06
   40.7999992       2.62505546E-06
   40.9199982       3.50448977E-06
   41.0400009       4.34139201E-06
   41.1599998       5.11075450E-06
   41.2799988       5.78561048E-06
   41.4000015       6.33773334E-06
   41.5200005       6.73874956E-06
   41.6399994       6.96161533E-06
   41.7599983       6.98236636E-06
   41.8800011       6.78202241E-06
   42.0000000       6.34846765E-06
   42.1199989       5.67814459E-06
   42.2400017       4.77738013E-06
   42.3600006       3.66319318E-06
   42.4799995       2.36346295E-06
   42.5999985       9.16391116E-07
   42.7200012      -6.30751117E-07
   42.8400002      -2.22354788E-06
   42.9599991      -3.80292363E-06
   43.0800018      -5.30803482E-06
   43.2000008      -6.67937638E-06
   43.3199997      -7.86189503E-06
   43.4399986      -8.80788230E-06
   43.5600014      -9.47947410E-06
   43.6800003      -9.85056977E-06
   43.7999992      -9.90805620E-06
   43.9199982      -9.65228810E-06
   44.0400009      -9.09678693E-06
   44.1599998      -8.26724226E-06
   44.2799988      -7.19987156E-06
   44.4000015      -5.93931691E-06
   44.5200005      -4.53620032E-06
   44.6399994      -3.04453738E-06
   44.7599983      -1.51915503E-06
   44.8800011      -1.32760531E-08
   45.0000000       1.42361228E-06
   45.1199989       2.74751596E-06
   45.2400017       3.92126412E-06
   45.3600006       4.91539413E-06
   45.4799995       5.70861130E-06
   45.5999985       6.28785074E-06
   45.7200012       6.64801701E-06
   45.8400002       6.79144932E-06
   45.9599991       6.72719761E-06
   46.0800018       6.47015941E-06
   46.2000008       6.04013894E-06
   46.3199997       5.46086949E-06
   46.4399986       4.75902834E-06
   46.5600014       3.96326459E-06
   46.6800003       3.10325936E-06
   46.7999992       2.20881748E-06
   46.9199982       1.30900901E-06
   47.0400009       4.31363929E-07
   47.1599998      -3.98865495E-07
   47.2799988      -1.15935984E-06
   47.4000015      -1.83128975E-06
   47.5200005      -2.39975429E-06
   47.6399994      -2.85408964E-06
   47.7599983      -3.18802904E-06
   47.8800011      -3.39971371E-06
   48.0000000      -3.49155016E-06
   48.1199989      -3.46992329E-06
   48.2400017      -3.34478204E-06
   48.3600006      -3.12911197E-06
   48.4799995      -2.83832514E-06
   48.5999985      -2.48958622E-06
   48.7200012      -2.10110670E-06
   48.8400002      -1.69142106E-06
   48.9599991      -1.27867645E-06
   49.0800018      -8.79944764E-07
   49.2000008      -5.10579866E-07
   49.3199997      -1.83635649E-07
   49.4399986       9.06381459E-08
   49.5600014       3.05203088E-07
   49.6800003       4.56522002E-07
   49.7999992       5.44710645E-07
   49.9199982       5.73530485E-07
   50.0400009       5.50205016E-07
   50.1599998       4.85047735E-07
   50.2799988       3.90898037E-07
   50.4000015       2.82374970E-07
   50.5200005       1.74971049E-07
   50.6399994       8.40264107E-08
   50.7599983       2.36374973E-08
   50.8800011       5.56984814E-09
   51.0000000       3.82530096E-08
   51.1199989       1.25940673E-07
   51.2400017       2.68115741E-07
   51.3600006       4.59209815E-07
   51.4799995       6.88688999E-07
   51.5999985       9.41531482E-07
   51.7200012       1.19909532E-06
   51.8400002       1.44033891E-06
   51.9599991       1.64332471E-06
   52.0800018       1.78690641E-06
   52.2000008       1.85247598E-06
   52.3199997       1.82562985E-06
   52.4399986       1.69761029E-06
   52.5600014       1.46638865E-06
   52.6800003       1.13727572E-06
   52.7999992       7.22980474E-07
   52.9199982       2.43083434E-07
   53.0400009      -2.77064800E-07
   53.1599998      -8.07952972E-07
   53.2799988      -1.31791569E-06
   53.4000015      -1.77538595E-06
   53.5200005      -2.15121577E-06
   53.6399994      -2.42087367E-06
   53.7599983      -2.56633871E-06
   53.8800011      -2.57752117E-06
   54.0000000      -2.45309366E-06
   54.1199989      -2.20064999E-06
   54.2400017      -1.83617794E-06
   54.3600006      -1.38288885E-06
   54.4799995      -8.69496603E-07
   54.5999985      -3.28096178E-07
   54.7200012       2.08183565E-07
   54.8400002       7.07557263E-07
   54.9599991       1.14179920E-06
   55.0800018       1.48812433E-06
   55.2000008       1.73059618E-06
   55.3199997       1.86096827E-06
   55.4399986       1.87891817E-06
   55.5600014       1.79168580E-06
   55.6800003       1.61317394E-06
   55.7999992       1.36261690E-06
   55.9199982       1.06294124E-06
   56.0400009       7.38966150E-07
   56.1599998       4.15590620E-07
   56.2799988       1.16101454E-07
   56.4000015      -1.39284651E-07
   56.5200005      -3.34561179E-07
   56.6399994      -4.58704818E-07
   56.7599983      -5.06066044E-07
   56.8800011      -4.76392358E-07
   57.0000000      -3.74524063E-07
   57.1199989      -2.09820627E-07
   57.2400017       4.61577843E-09
   57.3600006       2.52849986E-07
   57.4799995       5.17092758E-07
   57.5999985       7.78692709E-07
   57.7200012       1.01909632E-06
   57.8400002       1.22074493E-06
   57.9599991       1.36788606E-06
   58.0800018       1.44728654E-06
   58.2000008       1.44883893E-06
   58.3199997       1.36605638E-06
   58.4399986       1.19644551E-06
   58.5600014       9.41749079E-07
   58.6800003       6.08038135E-07
   58.7999992       2.05639566E-07
   58.9199982      -2.51122827E-07
   59.0400009      -7.44385716E-07
   59.1599998      -1.25340819E-06
   59.2799988      -1.75542891E-06
   59.4000015      -2.22669178E-06
   59.5200005      -2.64359915E-06
   59.6399994      -2.98392865E-06
   59.7599983      -3.22804499E-06
   59.8800011      -3.36002313E-06
   60.0000000      -3.36860535E-06
   60.1199989      -3.24792131E-06
   60.2400017      -2.99791532E-06
   60.3600006      -2.62444655E-06
   60.4799995      -2.13905651E-06
   60.5999985      -1.55842065E-06
   60.7200012      -9.03531202E-07
   60.8400002      -1.98673590E-07
   60.9599991       5.29725469E-07
   61.0800018       1.25429585E-06
   61.2000008       1.94789232E-06
   61.3199997       2.58466548E-06
   61.4399986       3.14099248E-06
   61.5600014       3.59623891E-06
   61.6800003       3.93334494E-06
   61.7999992       4.13925227E-06
   61.9199982       4.20518791E-06
   62.0400009       4.12683812E-06
   62.1599998       3.90443574E-06
   62.2799988       3.54277745E-06
   62.4000015       3.05118101E-06
   62.5200005       2.44336957E-06
   62.6399994       1.73726937E-06
   62.7599983       9.54691131E-07
   62.8800011       1.20863504E-07
   63.0000000      -7.36204584E-07
   63.1199989      -1.58655018E-06
   63.2400017      -2.39926931E-06
   63.3600006      -3.14369390E-06
   63.4799995      -3.79069161E-06
   63.5999985      -4.31401804E-06
   63.7200012      -4.69164706E-06
   63.8400002      -4.90698312E-06
   63.9599991      -4.94986807E-06
   64.0800018      -4.81729876E-06
   64.1999969      -4.51378537E-06
   64.3199997      -4.05131323E-06
   64.4400024      -3.44888463E-06
   64.5599976      -2.73166324E-06
   64.6800003      -1.92976040E-06
   64.8000031      -1.07673350E-06
   64.9199982      -2.07892356E-07
   65.0400009       6.41485087E-07
   65.1600037       1.43791510E-06
   65.2799988       2.15134105E-06
   65.4000015       2.75654247E-06
   65.5199966       3.23424115E-06
   65.6399994       3.57185331E-06
   65.7600021       3.76385515E-06
   65.8799973       3.81176073E-06
   66.0000000       3.72373006E-06
   66.1200027       3.51384824E-06
   66.2399979       3.20112372E-06
   66.3600006       2.80827157E-06
   66.4800034       2.36034975E-06
   66.5999985       1.88331501E-06
   66.7200012       1.40257464E-06
   66.8399963       9.41597136E-07
   66.9599991       5.20651042E-07
   67.0800018       1.55736245E-07
   67.1999969      -1.42233105E-07
   67.3199997      -3.67940970E-07
   67.4400024      -5.21832476E-07
   67.5599976      -6.09898848E-07
   67.6800003      -6.43074941E-07
   67.8000031      -6.36264474E-07
   67.9199982      -6.07040192E-07
   68.0400009      -5.74096021E-07
   68.1600037      -5.55557676E-07
   68.2799988      -5.67285269E-07
   68.4000015      -6.21310789E-07
   68.5199966      -7.24558390E-07
   68.6399994      -8.77976561E-07
   68.7600021      -1.07618291E-06
   68.8799973      -1.30767842E-06
   69.0000000      -1.55563350E-06
   69.1200027      -1.79919618E-06
   69.2399979      -2.01521448E-06
   69.3600006      -2.18022501E-06
   69.4800034      -2.27252849E-06
   69.5999985      -2.27416263E-06
   69.7200012      -2.17258821E-06
   69.8399963      -1.96193764E-06
   69.9599991      -1.64370783E-06
   70.0800018      -1.22684435E-06
   70.1999969      -7.27215877E-07
   70.3199997      -1.66536239E-07
   70.4400024       4.29157495E-07
   70.5599976       1.03132527E-06
   70.6800003       1.61087689E-06
   70.8000031       2.14008492E-06
   70.9199982       2.59430180E-06
   71.0400009       2.95334598E-06
   71.1600037       3.20246841E-06
   71.2799988       3.33284947E-06
   71.4000015       3.34162587E-06
   71.5199966       3.23149652E-06
   71.6399994       3.00998795E-06
   71.7600021       2.68848908E-06
   71.8799973       2.28118347E-06
   72.0000000       1.80399479E-06
   72.1200027       1.27366150E-06
   72.2399979       7.07011509E-07
   72.3600006       1.20486106E-07
   72.4800034      -4.70090669E-07
   72.5999985      -1.04952971E-06
   72.7200012      -1.60315381E-06