  -30.0000000       0.00000000    
  -29.8799992       0.00000000    
  -29.7600002       0.00000000    
  -29.6399994       0.00000000    
  -29.5200005       2.63444111E-43
  -29.3999996      -7.93415191E-42
  -29.2800007       1.00760366E-40
  -29.1599998       7.63134532E-40
  -29.0400009       1.17274668E-39
  -28.9200001      -5.15202935E-39
  -28.7999992      -2.95863123E-38
  -28.6800003      -6.28520925E-38
  -28.5599995      -2.15124944E-38
  -28.4400005       2.66692500E-37
  -28.3199997       8.93628434E-37
  -28.2000008       1.43864448E-36
  -28.0799999       5.53585985E-37
  -27.9599991      -3.63295411E-36
  -27.8400002      -1.14253065E-35
  -27.7199993      -1.81356063E-35
  -27.6000004      -1.22153479E-35
  -27.4799995       2.01301800E-35
  -27.3600006       8.08039179E-35
  -27.2399998       1.41195445E-34
  -27.1200008       1.35423642E-34
  -27.0000000      -1.35550225E-35
  -26.8799992      -3.27829418E-34
  -26.7600002      -6.96003317E-34
  -26.6399994      -8.47772587E-34
  -26.5200005      -4.52716945E-34
  -26.3999996       6.43702405E-34
  -26.2800007       2.14937103E-33
  -26.1599998       3.23044692E-33
  -26.0400009       2.80009036E-33
  -25.9200001       2.12513813E-34
  -25.7999992      -3.94764872E-33
  -25.6800003      -7.57706908E-33
  -25.5599995      -7.83084288E-33
  -25.4400005      -2.99928614E-33
  -25.3199997       5.38801464E-33
  -25.2000008       1.18772015E-32
  -25.0799999       9.38378847E-33
  -24.9599991      -5.42253120E-33
  -24.8400002      -2.60668488E-32
  -24.7199993      -3.42871983E-32
  -24.6000004      -6.93614988E-33
  -24.4799995       6.71539704E-32
  -24.3600006       1.66486123E-31
  -24.2399998       2.26066466E-31
  -24.1200008       1.52472326E-31
  -24.0000000      -1.27037532E-31
  -23.8799992      -5.92308235E-31
  -23.7600002      -1.06974387E-30
  -23.6399994      -1.23335933E-30
  -23.5200005      -7.08630030E-31
  -23.3999996       7.20165627E-31
  -23.2800007       2.86259074E-30
  -23.1599998       4.95935838E-30
  -23.0400009       5.74966486E-30
  -22.9200001       3.86291104E-30
  -22.7999992      -1.49841309E-30
  -22.6800003      -9.78813946E-30
  -22.5599995      -1.86059789E-29
  -22.4400005      -2.38328083E-29
  -22.3199997      -2.06694548E-29
  -22.2000008      -5.53860476E-30
  -22.0799999       2.15938515E-29
  -21.9599991       5.53017483E-29
  -21.8400002       8.42062794E-29
  -21.7199993       9.27962941E-29
  -21.6000004       6.59087171E-29
  -21.4799995      -4.69517872E-30
  -21.3600006      -1.13320863E-28
  -21.2399998      -2.35515328E-28
  -21.1200008      -3.28418337E-28
  -21.0000000      -3.38667510E-28
  -20.8799992      -2.18398843E-28
  -20.7600002       5.30315162E-29
  -20.6399994       4.47333148E-28
  -20.5200005       8.74001838E-28
  -20.3999996       1.18459367E-27
  -20.2800007       1.20120645E-27
  -20.1599998       7.69754910E-28
  -20.0400009      -1.70366692E-28
  -19.9200001      -1.51850245E-27
  -19.7999992      -2.97270041E-27
  -19.6800003      -4.04496595E-27
  -19.5599995      -4.15198564E-27
  -19.4400005      -2.78369658E-27
  -19.3199997       2.74681281E-28
  -19.2000008       4.72210559E-27
  -19.0799999       9.60317281E-27
  -18.9599991       1.33412464E-26
  -18.8400002       1.40144190E-26
  -18.7199993       9.89206846E-27
  -18.6000004       1.63364901E-28
  -18.4799995      -1.43155790E-26
  -18.3600006      -3.05225014E-26
  -18.2399998      -4.33255783E-26
  -18.1200008      -4.63506072E-26
  -18.0000000      -3.37379755E-26
  -17.8799992      -2.57448242E-27
  -17.7600002       4.45759351E-26
  -17.6399994       9.79428253E-26
  -17.5200005       1.40666903E-25
  -17.3999996       1.51632181E-25
  -17.2800007       1.11285163E-25
  -17.1599998       9.72214906E-27
  -17.0400009      -1.44880739E-25
  -16.9200001      -3.20489879E-25
  -16.7999992      -4.61547034E-25
  -16.6800003      -4.98262445E-25
  -16.5599995      -3.65750404E-25
  -16.4400005      -3.06496836E-26
  -16.3199997       4.81042795E-25
  -16.2000008       1.06466088E-24
  -16.0799999       1.53734959E-24
  -15.9600000       1.66772650E-24
  -15.8400002       1.23791435E-24
  -15.7200003       1.30803997E-25
  -15.6000004      -1.57725461E-24
  -15.4799995      -3.54966858E-24
  -15.3599997      -5.18575347E-24
  -15.2399998      -5.71185704E-24
  -15.1199999      -4.38046178E-24
  -15.0000000      -7.57314703E-25
  -14.8800001       4.96504202E-24
  -14.7600002       1.17285851E-23
  -14.6400003       1.75692955E-23
  -14.5200005       1.98863109E-23
  -14.3999996       1.60743079E-23
  -14.2799997       4.46729367E-24
  -14.1599998      -1.45954003E-23
  -14.0400000      -3.79057352E-23
  -13.9200001      -5.91347994E-23
  -13.8000002      -6.95782765E-23
  -13.6800003      -6.01151327E-23
  -13.5600004      -2.42667577E-23
  -13.4399996       3.82005546E-23
  -13.3199997       1.18144631E-22
  -13.1999998       1.95719798E-22
  -13.0799999       2.42184362E-22
  -12.9600000       2.25710296E-22
  -12.8400002       1.21077123E-22
  -12.7200003      -7.82759413E-23
  -12.6000004      -3.48905681E-22
  -12.4799995      -6.31002896E-22
  -12.3599997      -8.31589802E-22
  -12.2399998      -8.40730037E-22
  -12.1199999      -5.61366698E-22
  -12.0000000       5.09734654E-23
  -11.8800001       9.47518024E-22
  -11.7600002       1.95806596E-21
  -11.6400003       2.79080702E-21
  -11.5200005       3.07346732E-21
  -11.3999996       2.44138642E-21
  -11.2799997       6.64927146E-22
  -11.1599998      -2.20817096E-21
  -11.0400000      -5.73629843E-21
  -10.9200001      -9.04452853E-21
  -10.8000002      -1.09115390E-20
  -10.6800003      -1.00131708E-20
  -10.5600004      -5.31499329E-21
  -10.4399996       3.44645529E-21
  -10.3199997       1.53111568E-20
  -10.1999998       2.78339555E-20
  -10.0799999       3.71881049E-20
  -9.96000004       3.87694222E-20
  -9.84000015       2.83361705E-20
  -9.72000027       3.56215476E-21
  -9.60000038      -3.43084210E-20
  -9.47999954      -7.91910536E-20
  -9.35999966      -1.19860823E-19
  -9.23999977      -1.41163128E-19
  -9.11999989      -1.27041164E-19
  -9.00000000      -6.52474186E-20
  -8.88000011       4.69857910E-20
  -8.76000023       1.97671635E-19
  -8.64000034       3.57030746E-19
  -8.52000046       4.78657522E-19
  -8.39999962       5.06428560E-19
  -8.27999973       3.87594786E-19
  -8.15999985       9.07786584E-20
  -8.03999996      -3.74482474E-19
  -7.92000008      -9.41976428E-19
  -7.80000019      -1.48336893E-18
  -7.67999983      -1.81933992E-18
  -7.55999994      -1.75129604E-18
  -7.44000006      -1.11317852E-18
  -7.32000017       1.63386395E-19
  -7.19999981       1.98431427E-18
  -7.07999992       4.04825831E-18
  -6.96000004       5.84394500E-18
  -6.84000015       6.70893480E-18
  -6.71999979       5.95928086E-18
  -6.59999990       3.08276359E-18
  -6.48000002      -2.03342067E-18
  -6.36000013      -8.89223873E-18
  -6.23999977      -1.62625148E-17
  -6.11999989      -2.22140263E-17
  -6.00000000      -2.43704994E-17
  -5.88000011      -2.04011690E-17
  -5.76000023      -8.71199277E-18
  -5.63999987       1.07757149E-17
  -5.51999998       3.59434295E-17
  -5.40000010       6.21243808E-17
  -5.28000021       8.23219344E-17
  -5.15999985       8.81758717E-17
  -5.03999996       7.17204038E-17
  -4.92000008       2.77765331E-17
  -4.80000019      -4.34187170E-17
  -4.67999983      -1.33971840E-16
  -4.55999994      -2.27256134E-16
  -4.44000006      -2.98772687E-16
  -4.32000017      -3.19512210E-16
  -4.19999981      -2.61933769E-16
  -4.07999992      -1.08020074E-16
  -3.96000004       1.41904052E-16
  -3.83999991       4.61632321E-16
  -3.72000003       7.95335615E-16
  -3.59999990       1.06013352E-15
  -3.48000002       1.15683165E-15
  -3.35999990       9.89267143E-16
  -3.24000001       4.90643623E-16
  -3.11999989      -3.47209605E-16
  -3.00000000      -1.44804094E-15
  -2.88000011      -2.63680742E-15
  -2.75999999      -3.64483995E-15
  -2.64000010      -4.14078833E-15
  -2.51999998      -3.78948395E-15
  -2.40000010      -2.33465065E-15
  -2.27999997       3.06039357E-16
  -2.16000009       3.95245055E-15
  -2.03999996       8.10428588E-15
  -1.91999996       1.19399230E-14
  -1.79999995       1.43932040E-14
  -1.67999995       1.43185499E-14
  -1.55999994       1.07372878E-14
  -1.44000006       3.13602260E-15
  -1.32000005      -8.23499492E-15
  -1.20000005      -2.21342720E-14
  -1.08000004      -3.62514652E-14
 -0.959999979      -4.73519641E-14
 -0.839999974      -5.16894605E-14
 -0.720000029      -4.56861145E-14
 -0.600000024      -2.68182405E-14
 -0.479999989       5.42331225E-15
 -0.360000014       4.86906624E-14
 -0.239999995       9.72859217E-14
 -0.119999997       1.42248965E-13
  -1.11022302E-15   1.72204644E-13
  0.119999997       1.75038830E-13
  0.239999995       1.40311956E-13
  0.360000014       6.21265870E-14
  0.479999989      -5.80265816E-14
  0.600000024      -2.09068589E-13
  0.720000029      -3.69463493E-13
  0.839999974      -5.08298752E-13
  0.959999979      -5.88711751E-13
   1.08000004      -5.73686443E-13
   1.20000005      -4.33751966E-13
   1.32000005      -1.55571153E-13
   1.44000006       2.50086003E-13
   1.55999994       7.42820139E-13
   1.67999995       1.25141520E-12
   1.79999995       1.67854456E-12
   1.91999996       1.91219111E-12
   2.03999996       1.84348717E-12
   2.16000009       1.38930208E-12
   2.27999997       5.16474179E-13
   2.40000010      -7.36623707E-13
   2.51999998      -2.24619000E-12
   2.64000010      -3.80166688E-12
   2.75999999      -5.12077273E-12
   2.88000011      -5.88256483E-12
   3.00000000      -5.77716087E-12
   3.11999989      -4.56721683E-12
   3.24000001      -2.15270076E-12
   3.35999990       1.37232868E-12
   3.48000002       5.68364886E-12
   3.59999990       1.02236284E-11
   3.72000003       1.42399165E-11
   3.83999991       1.68696949E-11
   3.96000004       1.72657080E-11
   4.07999992       1.47516374E-11
   4.19999981       8.98614082E-12
   4.32000017       1.08189262E-13
   4.44000006      -1.11666752E-11
   4.55999994      -2.35280007E-11
   4.67999983      -3.51515865E-11
   4.80000019      -4.38891423E-11
   4.92000008      -4.75583219E-11
   5.03999996      -4.43056772E-11
   5.15999985      -3.29962724E-11
   5.28000021      -1.35691363E-11
   5.40000010       1.27096033E-11
   5.51999998       4.31609158E-11
   5.63999987       7.38245923E-11
   5.76000023       9.98321287E-11
   5.88000011       1.16008814E-10
   6.00000000       1.17651541E-10
   6.11999989       1.01389605E-10
   6.23999977       6.60028282E-11
   6.36000013       1.30541619E-11
   6.48000002      -5.28029391E-11
   6.59999990      -1.23955554E-10
   6.71999979      -1.90463242E-10
   6.84000015      -2.41184017E-10
   6.96000004      -2.65305250E-10
   7.07999992      -2.54110205E-10
   7.19999981      -2.02740616E-10
   7.32000017      -1.11675447E-10
   7.44000006       1.23604373E-11
   7.55999994       1.56302915E-10
   7.67999983       3.01630831E-10
   7.80000019       4.26259444E-10
   7.92000008       5.07328346E-10
   8.03999996       5.24610244E-10
   8.15999985       4.64123184E-10
   8.27999973       3.21429355E-10
   8.39999962       1.04063570E-10
   8.52000046      -1.67423922E-10
   8.64000034      -4.60205457E-10
   8.76000023      -7.31887440E-10
   8.88000011      -9.35132416E-10
   9.00000000      -1.02384368E-09
   9.11999989      -9.60284852E-10
   9.23999977      -7.22282234E-10
   9.35999966      -3.09519826E-10
   9.47999954       2.52086463E-10
   9.60000038       9.08835951E-10
   9.72000027       1.58116764E-09
   9.84000015       2.16935581E-09
   9.96000004       2.56283617E-09
   10.0799999       2.65255085E-09
   10.1999998       2.34526021E-09
   10.3199997       1.57841851E-09
   10.4399996       3.33982120E-10
   10.5600004      -1.35052602E-09
   10.6800003      -3.37523542E-09
   10.8000002      -5.57665913E-09
   10.9200001      -7.73270425E-09
   11.0400000      -9.57420454E-09
   11.1599998      -1.08025926E-08
   11.2799997      -1.11128413E-08
   11.3999996      -1.02203206E-08
   11.5200005      -7.88991894E-09
   11.6400003      -3.96561228E-09
   11.7600002       1.60133751E-09
   11.8800001       8.72731931E-09
   12.0000000       1.71760171E-08
   12.1199999       2.65442743E-08
   12.2399998       3.62555248E-08
   12.3599997       4.55622455E-08
   12.4799995       5.35589528E-08
   12.6000004       5.92075260E-08
   12.7200003       6.13767952E-08
   12.8400002       5.88985323E-08
   12.9600000       5.06418267E-08
   13.0799999       3.56074921E-08
   13.1999998       1.30431372E-08
   13.3199997      -1.74217050E-08
   13.4399996      -5.56230795E-08
   13.5600004      -1.00697847E-07
   13.6800003      -1.50914573E-07
   13.8000002      -2.03510822E-07
   13.9200001      -2.54550855E-07
   14.0400000      -2.98819401E-07
   14.1599998      -3.29769023E-07
   14.2799997      -3.39539355E-07
   14.3999996      -3.19063815E-07
   14.5200005      -2.58278675E-07
   14.6400003      -1.46442858E-07
   14.7600002       2.74281611E-08
   14.8800001       2.74018902E-07
   15.0000000       6.03074511E-07
   15.1199999       1.02268677E-06
   15.2399998       1.53853694E-06
   15.3599997       2.15313457E-06
   15.4799995       2.86509635E-06
   15.6000004       3.66851555E-06
   15.7200003       4.55247073E-06
   15.8400002       5.50072309E-06
   15.9600000       6.49165213E-06
   16.0799999       7.49844958E-06
   16.2000008       8.48961554E-06
   16.3199997       9.42974384E-06
   16.4400005       1.02806089E-05
   16.5599995       1.10025221E-05
   16.6800003       1.15559023E-05
   16.7999992       1.19030192E-05
   16.9200001       1.20098257E-05
   17.0400009       1.18477983E-05
   17.1599998       1.13956730E-05
   17.2800007       1.06410043E-05
   17.3999996       9.58142755E-06
   17.5200005       8.22555376E-06
   17.6399994       6.59340640E-06
   17.7600002       4.71636258E-06
   17.8799992       2.63655147E-06
   18.0000000       4.05711432E-07
   18.1200008      -1.91646768E-06
   18.2399998      -4.26446240E-06
   18.3600006      -6.56941302E-06
   18.4799995      -8.76188187E-06
   18.6000004      -1.07747537E-05
   18.7199993      -1.25461193E-05
   18.8400002      -1.40220054E-05
   18.9599991      -1.51587883E-05
   19.0799999      -1.59251722E-05
   19.2000008      -1.63035947E-05
   19.3199997      -1.62910073E-05
   19.4400005      -1.58989333E-05
   19.5599995      -1.51528357E-05
   19.6800003      -1.40908060E-05
   19.7999992      -1.27616413E-05
   19.9200001      -1.12224225E-05
   20.0400009      -9.53574363E-06
   20.1599998      -7.76672823E-06
   20.2800007      -5.98002453E-06
   20.3999996      -4.23694291E-06
   20.5200005      -2.59289391E-06
   20.6399994      -1.09526843E-06
   20.7600002       2.18140983E-07
   20.8799992       1.32011110E-06
   21.0000000       2.19432741E-06
   21.1200008       2.83511827E-06
   21.2399998       3.24664234E-06
   21.3600006       3.44163254E-06
   21.4799995       3.43981560E-06
   21.6000004       3.26614804E-06
   21.7199993       2.94901020E-06
   21.8400002       2.51849110E-06
   21.9599991       2.00486943E-06
   22.0799999       1.43738146E-06
   22.2000008       8.43315263E-07
   22.3199997       2.47443694E-07
   22.4400005      -3.28232261E-07
   22.5599995      -8.64486708E-07
   22.6800003      -1.34469769E-06
   22.7999992      -1.75459365E-06
   22.9200001      -2.08200595E-06
   23.0400009      -2.31670992E-06
   23.1599998      -2.45040724E-06
   23.2800007      -2.47688263E-06
   23.3999996      -2.39233054E-06
   23.5200005      -2.19581557E-06
   23.6399994      -1.88980619E-06
   23.7600002      -1.48069807E-06
   23.8799992      -9.79233846E-07
   24.0000000      -4.00727060E-07
   24.1200008       2.34989059E-07
   24.2399998       9.03944112E-07
   24.3600006       1.57877059E-06
   24.4799995       2.22979156E-06
   24.6000004       2.82640872E-06
   24.7199993       3.33871344E-06
   24.8400002       3.73920875E-06
   24.9599991       4.00452427E-06
   25.0799999       4.11698511E-06
   25.2000008       4.06591562E-06
   25.3199997       3.84856639E-06
   25.4400005       3.47058108E-06
   25.5599995       2.94595930E-06
   25.6800003       2.29650163E-06
   25.7999992       1.55076816E-06
   25.9200001       7.42614361E-07
   26.0400009      -9.06006079E-08
   26.1599998      -9.10016354E-07
   26.2800007      -1.67735573E-06
   26.3999996      -2.35695916E-06
   26.5200005      -2.91764604E-06
   26.6399994      -3.33429443E-06
   26.7600002      -3.58905686E-06
   26.8799992      -3.67215262E-06
   27.0000000      -3.58221178E-06
   27.1200008      -3.32616810E-06
   27.2399998      -2.91873312E-06
   27.3600006      -2.38149528E-06
   27.4799995      -1.74171259E-06
   27.6000004      -1.03087518E-06
   27.7199993      -2.83117828E-07
   27.8400002       4.66433704E-07
   27.9599991       1.18330468E-06
   28.0799999       1.83523071E-06
   28.2000008       2.39357109E-06
   28.3199997       2.83452232E-06
   28.4400005       3.14009071E-06
   28.5599995       3.29879094E-06
   28.6800003       3.30604962E-06
   28.7999992       3.16430283E-06
   28.9200001       2.88278989E-06
   29.0400009       2.47704929E-06
   29.1599998       1.96814676E-06
   29.2800007       1.38166297E-06
   29.3999996       7.46485853E-07
   29.5200005       9.34625746E-08
   29.6399994      -5.46031799E-07
   29.7600002      -1.14154307E-06
   29.8799992      -1.66493760E-06
   30.0000000      -2.09169025E-06
   30.1200008      -2.40199938E-06
   30.2399998      -2.58167802E-06
   30.3600006      -2.62278240E-06
   30.4799995      -2.52394739E-06
   30.6000004      -2.29041734E-06
   30.7199993      -1.93376968E-06
   30.8400002      -1.47134574E-06
   30.9599991      -9.25418249E-07
   31.0799999      -3.22128386E-07
   31.2000008       3.09756189E-07
   31.3199997       9.40208054E-07
   31.4400005       1.53936969E-06
   31.5599995       2.07898029E-06
   31.6800003       2.53373491E-06
   31.7999992       2.88250840E-06
   31.9200001       3.10938640E-06
   32.0400009       3.20445156E-06
   32.1599998       3.16427850E-06
   32.2799988       2.99211547E-06
   32.4000015       2.69773591E-06
   32.5200005       2.29696502E-06
   32.6399994       1.81090252E-06
   32.7599983       1.26487953E-06
   32.8800011       6.87201521E-07
   33.0000000       1.07739694E-07
   33.1199989      -4.43556360E-07
   33.2400017      -9.38149299E-07
   33.3600006      -1.35033383E-06
   33.4799995      -1.65851259E-06
   33.5999985      -1.84626981E-06
   33.7200012      -1.90318735E-06
   33.8400002      -1.82536814E-06
   33.9599991      -1.61564378E-06
   34.0800018      -1.28345789E-06
   34.2000008      -8.44433202E-07
   34.3199997      -3.19643760E-07
   34.4399986       2.65372762E-07
   34.5600014       8.81815197E-07
   34.6800003       1.49897539E-06
   34.7999992       2.08568622E-06
   34.9199982       2.61179184E-06
   35.0400009       3.04956825E-06
   35.1599998       3.37502865E-06
   35.2799988       3.56904502E-06
   35.4000015       3.61823800E-06
   35.5200005       3.51559038E-06
   35.6399994       3.26076110E-06
   35.7599983       2.86008935E-06
   35.8800011       2.32629691E-06
   36.0000000       1.67791359E-06
   36.1199989       9.38461767E-07
   36.2400017       1.35450207E-07
   36.3600006      -7.00768283E-07
   36.4799995      -1.53821759E-06
   36.5999985      -2.34454023E-06
   36.7200012      -3.08820904E-06
   36.8400002      -3.73966554E-06
   36.9599991      -4.27234818E-06
   37.0800018      -4.66358824E-06
   37.2000008      -4.89535205E-06
   37.3199997      -4.95482709E-06
   37.4399986      -4.83484155E-06
   37.5600014      -4.53412213E-06
   37.6800003      -4.05738683E-06
   37.7999992      -3.41527993E-06
   37.9199982      -2.62415074E-06
   38.0400009      -1.70567296E-06
   38.1599998      -6.86315104E-07
   38.2799988       4.03336799E-07
   38.4000015       1.52939663E-06
   38.5200005       2.65562403E-06
   38.6399994       3.74448132E-06
   38.7599983       4.75828210E-06
   38.8800011       5.66040035E-06
   39.0000000       6.41650968E-06
   39.1199989       6.99581324E-06
   39.2400017       7.37222445E-06
   39.3600006       7.52544838E-06
   39.4799995       7.44192448E-06
   39.5999985       7.11558687E-06
   39.7200012       6.54839823E-06
   39.8400002       5.75062404E-06
   39.9599991       4.74081935E-06
   40.0800018       3.54551003E-06
   40.2000008       2.19855770E-06
   40.3199997       7.40212158E-07
   40.4399986      -7.84129440E-07
   40.5600014      -2.32542925E-06
   40.6800003      -3.83273664E-06
   40.7999992      -5.25507676E-06
   40.9199982      -6.54343148E-06
   41.0400009      -7.65273035E-06
   41.1599998      -8.54375958E-06
   41.2799988      -9.18489604E-06
   41.4000015      -9.55356700E-06
   41.5200005      -9.63735420E-06
   41.6399994      -9.43465329E-06
   41.7599983      -8.95484754E-06
   41.8800011      -8.21794492E-06
   42.0000000      -7.25369500E-06
   42.1199989      -6.10020243E-06
   42.2400017      -4.80210974E-06
   42.3600006      -3.40844895E-06
   42.4799995      -1.97028476E-06
   42.5999985      -5.38289157E-07
   42.7200012       8.39595032E-07
   42.8400002       2.12025770E-06
   42.9599991       3.26716031E-06
   43.0800018       4.25160670E-06
   43.2000008       5.05347680E-06
   43.3199997       5.66140488E-06
   43.4399986       6.07241918E-06
   43.5600014       6.29110718E-06
   43.6800003       6.32841602E-06
   43.7999992       6.20020182E-06
   43.9199982       5.92567949E-06
   44.0400009       5.52590927E-06
   44.1599998       5.02244575E-06
   44.2799988       4.43625322E-06
   44.4000015       3.78695131E-06
   44.5200005       3.09241955E-06
   44.6399994       2.36873780E-06
   44.7599983       1.63041773E-06
   44.8800011       8.90834599E-07
   45.0000000       1.62751846E-07
   45.1199989      -5.41171914E-07
   45.2400017      -1.20800485E-06
   45.3600006      -1.82438134E-06
   45.4799995      -2.37662016E-06
   45.5999985      -2.85114265E-06
   45.7200012      -3.23517133E-06
   45.8400002      -3.51764720E-06
   45.9599991      -3.69026930E-06
   46.0800018      -3.74853221E-06
   46.2000008      -3.69262398E-06
   46.3199997      -3.52804977E-06
   46.4399986      -3.26586405E-06
   46.5600014      -2.92243044E-06
   46.6800003      -2.51867209E-06
   46.7999992      -2.07883204E-06
   46.9199982      -1.62881349E-06
   47.0400009      -1.19423646E-06
   47.1599998      -7.98372298E-07
   47.2799988      -4.60159896E-07
   47.4000015      -1.92504757E-07
   47.5200005      -1.05429232E-09
   47.6399994       1.16396720E-07
   47.7599983       1.69769265E-07
   47.8800011       1.75800480E-07
   48.0000000       1.56426637E-07
   48.1199989       1.36571416E-07
   48.2400017       1.41531260E-07
   48.3600006       1.94201633E-07
   48.4799995       3.12419075E-07
   48.5999985       5.06694448E-07
   48.7200012       7.78587378E-07
   48.8400002       1.11991665E-06
   48.9599991       1.51292215E-06
   49.0800018       1.93140136E-06
   49.2000008       2.34274285E-06
   49.3199997       2.71068870E-06
   49.4399986       2.99857106E-06
   49.5600014       3.17272293E-06
   49.6800003       3.20573645E-06
   49.7999992       3.07924870E-06
   49.9199982       2.78599146E-06
   50.0400009       2.33089872E-06
   50.1599998       1.73116689E-06
   50.2799988       1.01526462E-06
   50.4000015       2.20983708E-07
   50.5200005      -6.07282800E-07
   50.6399994      -1.42178772E-06
   50.7599983      -2.17491129E-06
   50.8800011      -2.82257861E-06
   51.0000000      -3.32733612E-06
   51.1199989      -3.66085101E-06
   51.2400017      -3.80566485E-06
   51.3600006      -3.75611035E-06
   51.4799995      -3.51836752E-06
   51.5999985      -3.10971041E-06
   51.7200012      -2.55706141E-06
   51.8400002      -1.89499588E-06
   51.9599991      -1.16337719E-06
   52.0800018      -4.04800801E-07
   52.2000008       3.37980140E-07
   52.3199997       1.02449712E-06
   52.4399986       1.61875244E-06
   52.5600014       2.09105588E-06
   52.6800003       2.41944963E-06
   52.7999992       2.59068383E-06
   52.9199982       2.60073080E-06
   53.0400009       2.45483852E-06
   53.1599998       2.16714056E-06
   53.2799988       1.75984565E-06
   53.4000015       1.26203861E-06
   53.5200005       7.08131154E-07
   53.6399994       1.36014165E-07
   53.7599983      -4.15028239E-07
   53.8800011      -9.06562491E-07
   54.0000000      -1.30331068E-06
   54.1199989      -1.57539841E-06
   54.2400017      -1.70041426E-06
   54.3600006      -1.66513803E-06
   54.4799995      -1.46679758E-06
   54.5999985      -1.11372719E-06
   54.7200012      -6.25328425E-07
   54.8400002      -3.12769615E-08
   54.9599991       6.30029376E-07
   55.0800018       1.31372497E-06
   55.2000008       1.97131749E-06
   55.3199997       2.55393797E-06
   55.4399986       3.01578552E-06
   55.5600014       3.31750584E-06
   55.6800003       3.42925068E-06
   55.7999992       3.33315938E-06
   55.9199982       3.02504554E-06
   56.0400009       2.51512574E-06
   56.1599998       1.82769236E-06
   56.2799988       9.99719077E-07
   56.4000015       7.84751961E-08
   56.5200005      -8.81695883E-07
   56.6399994      -1.82319957E-06
   56.7599983      -2.68932331E-06
   56.8800011      -3.42835506E-06
   57.0000000      -3.99735200E-06
   57.1199989      -4.36524851E-06
   57.2400017      -4.51503183E-06
   57.3600006      -4.44480111E-06
   57.4799995      -4.16759940E-06
   57.5999985      -3.71003966E-06
   57.7200012      -3.10981864E-06
   57.8400002      -2.41235011E-06
   57.9599991      -1.66680650E-06
   58.0800018      -9.21924425E-07
   58.2000008      -2.21963504E-07
   58.3199997       3.96814642E-07
   58.4399986       9.08819061E-07
   58.5600014       1.30070896E-06
   58.6800003       1.57173952E-06
   58.7999992       1.73285775E-06
   58.9199982       1.80465497E-06
   59.0400009       1.81439839E-06
   59.1599998       1.79245842E-06
   59.2799988       1.76850710E-06
   59.4000015       1.76788694E-06
   59.5200005       1.80852771E-06
   59.6399994       1.89873128E-06
   59.7599983       2.03604964E-06
   59.8800011       2.20737024E-06
   60.0000000       2.39018982E-06
   60.1199989       2.55494501E-06
   60.2400017       2.66814232E-06
   60.3600006       2.69597217E-06
   60.4799995       2.60802290E-06
   60.5999985       2.38072198E-06
   60.7200012       2.00015961E-06
   60.8400002       1.46401953E-06
   60.9599991       7.82447387E-07
   61.0800018      -2.22121219E-08
   61.2000008      -9.16749286E-07
   61.3199997      -1.85934084E-06
   61.4399986      -2.80247832E-06
   61.5600014      -3.69628333E-06
   61.6800003      -4.49190838E-06
   61.7999992      -5.14473004E-06
   61.9199982      -5.61709749E-06
   62.0400009      -5.88045850E-06
   62.1599998      -5.91676053E-06
   62.2799988      -5.71911096E-06
   62.4000015      -5.29173803E-06
   62.5200005      -4.64935238E-06
   62.6399994      -3.81604468E-06
   62.7599983      -2.82385372E-06
   62.8800011      -1.71115551E-06
   63.0000000      -5.20968911E-07
   63.1199989       7.00732528E-07
   63.2400017       1.90666651E-06
   63.3600006       3.04983928E-06
   63.4799995       4.08510778E-06
   63.5999985       4.97073552E-06
   63.7200012       5.66995777E-06
   63.8400002       6.15254521E-06
   63.9599991       6.39634300E-06
   64.0800018       6.38868914E-06
   64.1999969       6.12761596E-06
   64.3199997       5.62268633E-06
   64.4400024       4.89532158E-06
   64.5599976       3.97849499E-06
   64.6800003       2.91567540E-06
   64.8000031       1.75899481E-06
   64.9199982       5.66661356E-07
   65.0400009      -6.00271335E-07
   65.1600037      -1.68158783E-06
   65.2799988      -2.62179196E-06
   65.4000015      -3.37387951E-06
   65.5199966      -3.90267860E-06
   65.6399994      -4.18745049E-06
   65.7600021      -4.22348467E-06
   65.8799973      -4.02251771E-06
   66.0000000      -3.61188222E-06
   66.1200027      -3.03243837E-06
   66.2399979      -2.33542437E-06
   66.3600006      -1.57848569E-06
   66.4800034      -8.21208687E-07
   66.5999985      -1.20532633E-07
   66.7200012       4.73578950E-07
   66.8399963       9.21854848E-07
   66.9599991       1.19852382E-06
   67.0800018       1.29300361E-06
   67.1999969       1.21035646E-06
   67.3199997       9.70499627E-07
   67.4400024       6.06263143E-07
   67.5599976       1.60466101E-07
   67.6800003      -3.17737374E-07
   67.8000031      -7.76948468E-07
   67.9199982      -1.16772878E-06
   68.0400009      -1.44659839E-06
   68.1600037      -1.57952695E-06
   68.2799988      -1.54466397E-06
   68.4000015      -1.33411288E-06
   68.5199966      -9.54631105E-07
   68.6399994      -4.27216690E-07
   68.7600021       2.14374936E-07
   68.8799973       9.26062910E-07
   69.0000000       1.65663687E-06
   69.1200027       2.35148104E-06
   69.2399979       2.95655627E-06
   69.3600006       3.42236171E-06
   69.4800034       3.70759562E-06
   69.5999985       3.78226969E-06
   69.7200012       3.63005574E-06
   69.8399963       3.24970961E-06
   69.9599991       2.65546578E-06
   70.0800018       1.87637011E-06
   70.1999969       9.54586199E-07
   70.3199997      -5.72244403E-08
   70.4400024      -1.09928214E-06
   70.5599976      -2.10860844E-06
   70.6800003      -3.02322701E-06
   70.8000031      -3.78635696E-06
   70.9199982      -4.35030961E-06
   71.0400009      -4.67980135E-06
   71.1600037      -4.75444131E-06
   71.2799988      -4.57019814E-06
   71.4000015      -4.13971611E-06
   71.5199966      -3.49145307E-06
   71.6399994      -2.66768689E-06
   71.7600021      -1.72153193E-06
   71.8799973      -7.13197210E-07
   72.0000000       2.94229210E-07
   72.1200027       1.23914072E-06
   72.2399979       2.06558298E-06
   72.3600006       2.72691864E-06
   72.4800034       3.18872617E-06
   72.5999985       3.43073725E-06
   72.7200012       3.44770729E-06