  -30.0000000       0.00000000    
  -29.8799992       0.00000000    
  -29.7600002       0.00000000    
  -29.6399994       0.00000000    
  -29.5200005      -5.46506401E-44
  -29.3999996       3.30706438E-43
  -29.2800007      -1.44473872E-42
  -29.1599998      -4.34122264E-41
  -29.0400009      -8.81570877E-41
  -28.9200001       9.77935370E-40
  -28.7999992       7.54867572E-39
  -28.6800003       2.61460798E-38
  -28.5599995       4.70408327E-38
  -28.4400005      -4.17528929E-39
  -28.3199997      -3.15691065E-37
  -28.2000008      -1.11290586E-36
  -28.0799999      -2.24831303E-36
  -27.9599991      -2.37239175E-36
  -27.8400002       1.87445072E-36
  -27.7199993       1.53626077E-35
  -27.6000004       4.08768920E-35
  -27.4799995       7.16270608E-35
  -27.3600006       8.23924252E-35
  -27.2399998       2.66637045E-35
  -27.1200008      -1.49800695E-34
  -27.0000000      -4.72071093E-34
  -26.8799992      -8.81749425E-34
  -26.7600002      -1.19033644E-33
  -26.6399994      -1.07986384E-33
  -26.5200005      -1.86241870E-34
  -26.3999996       1.72983692E-33
  -26.2800007       4.56846255E-33
  -26.1599998       7.71846268E-33
  -26.0400009       1.00193761E-32
  -25.9200001       9.90750646E-33
  -25.7999992       5.73064957E-33
  -25.6800003      -3.82304558E-33
  -25.5599995      -1.92093468E-32
  -25.4400005      -3.93773122E-32
  -25.3199997      -6.09106260E-32
  -25.2000008      -7.70497873E-32
  -25.0799999      -7.70998281E-32
  -24.9599991      -4.72688466E-32
  -24.8400002       2.57282770E-32
  -24.7199993       1.47445371E-31
  -24.6000004       3.05618163E-31
  -24.4799995       4.60566586E-31
  -24.3600006       5.42074189E-31
  -24.2399998       4.59774961E-31
  -24.1200008       1.31765135E-31
  -24.0000000      -4.70438199E-31
  -23.8799992      -1.27240022E-30
  -23.7600002      -2.06445264E-30
  -23.6399994      -2.51290731E-30
  -23.5200005      -2.23510283E-30
  -23.3999996      -9.39125288E-31
  -23.2800007       1.40117366E-30
  -23.1599998       4.39689919E-30
  -23.0400009       7.20011693E-30
  -22.9200001       8.63513260E-30
  -22.7999992       7.52914250E-30
  -22.6800003       3.18938814E-30
  -22.5599995      -4.11226781E-30
  -22.4400005      -1.28471324E-29
  -22.3199997      -2.03282282E-29
  -22.2000008      -2.33118111E-29
  -22.0799999      -1.90492316E-29
  -21.9599991      -6.53434477E-30
  -21.8400002       1.24773937E-29
  -21.7199993       3.31598072E-29
  -21.6000004       4.83869165E-29
  -21.4799995       5.06639344E-29
  -21.3600006       3.48842397E-29
  -21.2399998       1.15295204E-30
  -21.1200008      -4.33700646E-29
  -21.0000000      -8.46637720E-29
  -20.8799992      -1.04768567E-28
  -20.7600002      -8.73902208E-29
  -20.6399994      -2.51328787E-29
  -20.5200005       7.37256154E-29
  -20.3999996       1.81726115E-28
  -20.2800007       2.54817672E-28
  -20.1599998       2.42852857E-28
  -20.0400009       1.07598889E-28
  -19.9200001      -1.55261298E-28
  -19.7999992      -4.97007793E-28
  -19.6800003      -8.08844547E-28
  -19.5599995      -9.35994538E-28
  -19.4400005      -7.18099543E-28
  -19.3199997      -5.30982677E-29
  -19.2000008       1.02923699E-27
  -19.0799999       2.30898932E-27
  -18.9599991       3.36457419E-27
  -18.8400002       3.63692033E-27
  -18.7199993       2.58266108E-27
  -18.6000004      -9.91740713E-29
  -18.4799995      -4.21963123E-27
  -18.3600006      -8.91902548E-27
  -18.2399998      -1.26581807E-26
  -18.1200008      -1.34723006E-26
  -18.0000000      -9.52054425E-27
  -17.8799992       1.34420846E-28
  -17.7600002       1.47045968E-26
  -17.6399994       3.11096604E-26
  -17.5200005       4.40103095E-26
  -17.3999996       4.67268260E-26
  -17.2800007       3.31282877E-26
  -17.1599998       2.48463139E-28
  -17.0400009      -4.90123194E-26
  -16.9200001      -1.04086511E-25
  -16.7999992      -1.46967609E-25
  -16.6800003      -1.55377138E-25
  -16.5599995      -1.09112960E-25
  -16.4400005       1.26291286E-27
  -16.3199997       1.65533648E-25
  -16.2000008       3.47994032E-25
  -16.0799999       4.88379990E-25
  -15.9600000       5.12537869E-25
  -15.8400002       3.53607542E-25
  -15.7200003      -1.90822572E-26
  -15.6000004      -5.70480294E-25
  -15.4799995      -1.18043351E-24
  -15.3599997      -1.64675069E-24
  -15.2399998      -1.72063323E-24
  -15.1199999      -1.17716201E-24
  -15.0000000       8.82346469E-26
  -14.8800001       1.96055818E-24
  -14.7600002       4.03889684E-24
  -14.6400003       5.64387813E-24
  -14.5200005       5.93253180E-24
  -14.3999996       4.13095217E-24
  -14.2799997      -1.43220508E-25
  -14.1599998      -6.54324070E-24
  -14.0400000      -1.37574770E-23
  -13.9200001      -1.95122126E-23
  -13.8000002      -2.09296047E-23
  -13.6800003      -1.52849500E-23
  -13.5600004      -1.08382093E-24
  -13.4399996       2.07753730E-23
  -13.3199997       4.61333998E-23
  -13.1999998       6.74564489E-23
  -13.0799999       7.48894119E-23
  -12.9600000       5.86714541E-23
  -12.8400002       1.27163952E-23
  -12.7200003      -6.13529816E-23
  -12.6000004      -1.50936796E-22
  -12.4799995      -2.31500333E-22
  -12.3599997      -2.69405112E-22
  -12.2399998      -2.29387296E-22
  -12.1199999      -8.63206123E-23
  -12.0000000       1.60787372E-22
  -11.8800001       4.76400497E-22
  -11.7600002       7.82804675E-22
  -11.6400003       9.66495417E-22
  -11.5200005       9.00274924E-22
  -11.3999996       4.81056619E-22
  -11.2799997      -3.22063938E-22
  -11.1599998      -1.42110397E-21
  -11.0400000      -2.58065710E-21
  -10.9200001      -3.42623299E-21
  -10.8000002      -3.50462855E-21
  -10.6800003      -2.40106056E-21
  -10.5600004       9.92139632E-23
  -10.4399996       3.83808492E-21
  -10.3199997       8.15372286E-21
  -10.1999998       1.18563069E-20
  -10.0799999       1.33703729E-20
  -9.96000004       1.10769121E-20
  -9.84000015       3.83772869E-21
  -9.72000027      -8.38448606E-21
  -9.60000038      -2.39700866E-20
  -9.47999954      -3.93656158E-20
  -9.35999966      -4.93125338E-20
  -9.23999977      -4.77505389E-20
  -9.11999989      -2.94247660E-20
  -9.00000000       7.98872295E-21
  -8.88000011       6.16813784E-20
  -8.76000023       1.22111685E-19
  -8.64000034       1.72811278E-19
  -8.52000046       1.92334614E-19
  -8.39999962       1.58753602E-19
  -8.27999973       5.64795109E-20
  -8.15999985      -1.15646286E-19
  -8.03999996      -3.36950032E-19
  -7.92000008      -5.60874467E-19
  -7.80000019      -7.17144446E-19
  -7.67999983      -7.22421962E-19
  -7.55999994      -5.00154551E-19
  -7.44000006      -7.80806638E-21
  -7.32000017       7.33437733E-19
  -7.19999981       1.61450125E-18
  -7.07999992       2.42971401E-18
  -6.96000004       2.89356174E-18
  -6.84000015       2.68969005E-18
  -6.71999979       1.55246591E-18
  -6.59999990      -6.28227235E-19
  -6.48000002      -3.69948050E-18
  -6.36000013      -7.16588054E-18
  -6.23999977      -1.01745813E-17
  -6.11999989      -1.15991707E-17
  -6.00000000      -1.02432844E-17
  -5.88000011      -5.15960938E-18
  -5.76000023       3.95540398E-18
  -5.63999987       1.63704949E-17
  -5.51999998       3.00462538E-17
  -5.40000010       4.16110891E-17
  -5.28000021       4.67063860E-17
  -5.15999985       4.07700516E-17
  -5.03999996       2.02355973E-17
  -4.92000008      -1.60019992E-17
  -4.80000019      -6.51420151E-17
  -4.67999983      -1.19464256E-16
  -4.55999994      -1.66216200E-16
  -4.44000006      -1.88830828E-16
  -4.32000017      -1.69731506E-16
  -4.19999981      -9.46641375E-17
  -4.07999992       4.19385236E-17
  -3.96000004       2.31542332E-16
  -3.83999991       4.47463313E-16
  -3.72000003       6.43846684E-16
  -3.59999990       7.59248253E-16
  -3.48000002       7.25865043E-16
  -3.35999990       4.84442230E-16
  -3.24000001       3.43867108E-18
  -3.11999989      -7.00646966E-16
  -3.00000000      -1.54647019E-15
  -2.88000011      -2.38028731E-15
  -2.75999999      -2.98343236E-15
  -2.64000010      -3.09923574E-15
  -2.51999998      -2.48078544E-15
  -2.40000010      -9.56395595E-16
  -2.27999997       1.49595124E-15
  -2.16000009       4.67958217E-15
  -2.03999996       8.13438435E-15
  -1.91999996       1.11368688E-14
  -1.79999995       1.27630704E-14
  -1.67999995       1.20246051E-14
  -1.55999994       8.07514202E-15
  -1.44000006       4.67167628E-16
  -1.32000005      -1.05803902E-14
  -1.20000005      -2.39607308E-14
  -1.08000004      -3.75721521E-14
 -0.959999979      -4.83937434E-14
 -0.839999974      -5.27968748E-14
 -0.720000029      -4.71131990E-14
 -0.600000024      -2.84310539E-14
 -0.479999989       4.46792600E-15
 -0.360000014       5.01827312E-14
 -0.239999995       1.03980287E-13
 -0.119999997       1.57526525E-13
  -1.11022302E-15   1.99279531E-13
  0.119999997       2.15701683E-13
  0.239999995       1.93331747E-13
  0.360000014       1.21595252E-13
  0.479999989      -3.96145451E-15
  0.600000024      -1.78521721E-13
  0.720000029      -3.85595906E-13
  0.839999974      -5.96100643E-13
  0.959999979      -7.69605191E-13
   1.08000004      -8.58230479E-13
   1.20000005      -8.13326728E-13
   1.32000005      -5.94560100E-13
   1.44000006      -1.80460912E-13
   1.55999994       4.21093146E-13
   1.67999995       1.16444625E-12
   1.79999995       1.96200803E-12
   1.91999996       2.68647756E-12
   2.03999996       3.18102142E-12
   2.16000009       3.27799636E-12
   2.27999997       2.82544431E-12
   2.40000010       1.71896026E-12
   2.51999998      -6.51120122E-14
   2.64000010      -2.44058419E-12
   2.75999999      -5.19268222E-12
   2.88000011      -7.97584828E-12
   3.00000000      -1.03331432E-11
   3.11999989      -1.17399692E-11
   3.24000001      -1.16714841E-11
   3.35999990      -9.68886690E-12
   3.48000002      -5.53527146E-12
   3.59999990       7.71763946E-13
   3.72000003       8.86737472E-12
   3.83999991       1.80027018E-11
   3.96000004       2.70595889E-11
   4.07999992       3.46271518E-11
   4.19999981       3.91434073E-11
   4.32000017       3.90956191E-11
   4.44000006       3.32623165E-11
   4.55999994       2.09694866E-11
   4.67999983       2.32507763E-12
   4.80000019      -2.16087877E-11
   4.92000008      -4.87457297E-11
   5.03999996      -7.60402644E-11
   5.15999985      -9.97077837E-11
   5.28000021      -1.15599808E-10
   5.40000010      -1.19711990E-10
   5.51999998      -1.08777966E-10
   5.63999987      -8.08801984E-11
   5.76000023      -3.59931217E-11
   5.88000011       2.36327867E-11
   6.00000000       9.33308500E-11
   6.11999989       1.66187702E-10
   6.23999977       2.33554759E-10
   6.36000013       2.85890478E-10
   6.48000002       3.13872428E-10
   6.59999990       3.09668402E-10
   6.71999979       2.68214090E-10
   6.84000015       1.88318194E-10
   6.96000004       7.34105485E-11
   7.07999992      -6.82291099E-11
   7.19999981      -2.23875085E-10
   7.32000017      -3.77431308E-10
   7.44000006      -5.11125142E-10
   7.55999994      -6.07665251E-10
   7.67999983      -6.52614851E-10
   7.80000019      -6.36660502E-10
   7.92000008      -5.57416557E-10
   8.03999996      -4.20421115E-10
   8.15999985      -2.39040482E-10
   8.27999973      -3.31257903E-11
   8.39999962       1.73570464E-10
   8.52000046       3.57008950E-10
   8.64000034       4.97095531E-10
   8.76000023       5.81935389E-10
   8.88000011       6.11387496E-10
   9.00000000       5.99154559E-10
   9.11999989       5.72711434E-10
   9.23999977       5.70562375E-10
   9.35999966       6.36623976E-10
   9.47999954       8.11938794E-10
   9.60000038       1.12439213E-09
   9.72000027       1.57758584E-09
   9.84000015       2.14044604E-09
   9.96000004       2.73943801E-09
   10.0799999       3.25536620E-09
   10.1999998       3.52658480E-09
   10.3199997       3.36001271E-09
   10.4399996       2.55062260E-09
   10.5600004       9.09083531E-10
   10.6800003      -1.70393899E-09
   10.8000002      -5.33956923E-09
   10.9200001      -9.92256322E-09
   11.0400000      -1.52181450E-08
   11.1599998      -2.08094200E-08
   11.2799997      -2.60910102E-08
   11.3999996      -3.02840313E-08
   11.5200005      -3.24762972E-08
   11.6400003      -3.16895701E-08
   11.7600002      -2.69732432E-08
   11.8800001      -1.75206072E-08
   12.0000000      -2.80065593E-09
   12.1199999       1.73048846E-08
   12.2399998       4.23724558E-08
   12.3599997       7.13306676E-08
   12.4799995       1.02393621E-07
   12.6000004       1.33049156E-07
   12.7200003       1.60115917E-07
   12.8400002       1.79879152E-07
   12.9600000       1.88310196E-07
   13.0799999       1.81368137E-07
   13.1999998       1.55374494E-07
   13.3199997       1.07444222E-07
   13.4399996       3.59483785E-08
   13.5600004      -5.90224083E-08
   13.6800003      -1.75229957E-07
   13.8000002      -3.07935096E-07
   13.9200001      -4.49657534E-07
   14.0400000      -5.90085676E-07
   14.1599998      -7.16166198E-07
   14.2799997      -8.12393239E-07
   14.3999996      -8.61308024E-07
   14.5200005      -8.44202191E-07
   14.6400003      -7.42006421E-07
   14.7600002      -5.36329537E-07
   14.8800001      -2.10599296E-07
   15.0000000       2.48754048E-07
   15.1199999       8.51141237E-07
   15.2399998       1.60075592E-06
   15.3599997       2.49568757E-06
   15.4799995       3.52727398E-06
   15.6000004       4.67974724E-06
   15.7200003       5.93022105E-06
   15.8400002       7.24903612E-06
   15.9600000       8.60048203E-06
   16.0799999       9.94385573E-06
   16.2000008       1.12348471E-05
   16.3199997       1.24271664E-05
   16.4400005       1.34743632E-05
   16.5599995       1.43317284E-05
   16.6800003       1.49582074E-05
   16.7999992       1.53182191E-05
   16.9200001       1.53832789E-05
   17.0400009       1.51333761E-05
   17.1599998       1.45580061E-05
   17.2800007       1.36568260E-05
   17.3999996       1.24398966E-05
   17.5200005       1.09275070E-05
   17.6399994       9.14959219E-06
   17.7600002       7.14477392E-06
   17.8799992       4.95907170E-06
   18.0000000       2.64435153E-06
   18.1200008       2.56573315E-07
   18.2399998      -2.14607962E-06
   18.3600006      -4.50511561E-06
   18.4799995      -6.76362060E-06
   18.6000004      -8.86804446E-06
   18.7199993      -1.07698270E-05
   18.8400002      -1.24268145E-05
   18.9599991      -1.38044225E-05
   19.0799999      -1.48765275E-05
   19.2000008      -1.56260448E-05
   19.3199997      -1.60452273E-05
   19.4400005      -1.61356456E-05
   19.5599995      -1.59078809E-05
   19.6800003      -1.53809706E-05
   19.7999992      -1.45815829E-05
   19.9200001      -1.35430228E-05
   20.0400009      -1.23040318E-05
   20.1599998      -1.09074936E-05
   20.2800007      -9.39903657E-06
   20.3999996      -7.82560528E-06
   20.5200005      -6.23403366E-06
   20.6399994      -4.66966821E-06
   20.7600002      -3.17506874E-06
   20.8799992      -1.78882851E-06
   21.0000000      -5.44542445E-07
   21.1200008       5.30057036E-07
   21.2399998       1.41377427E-06
   21.3600006       2.09242262E-06
   21.4799995       2.55908503E-06
   21.6000004       2.81416010E-06
   21.7199993       2.86518798E-06
   21.8400002       2.72646662E-06
   21.9599991       2.41845555E-06
   22.0799999       1.96698602E-06
   22.2000008       1.40228622E-06
   22.3199997       7.57846919E-07
   22.4400005       6.91523141E-08
   22.5599995      -6.27686859E-07
   22.6800003      -1.29735645E-06
   22.7999992      -1.90676644E-06
   22.9200001      -2.42642773E-06
   23.0400009      -2.83171516E-06
   23.1599998      -3.10395808E-06
   23.2800007      -3.23129416E-06
   23.3999996      -3.20923664E-06
   23.5200005      -3.04090690E-06
   23.6399994      -2.73691057E-06
   23.7600002      -2.31483591E-06
   23.8799992      -1.79839049E-06
   24.0000000      -1.21620201E-06
   24.1200008      -6.00336762E-07
   24.2399998       1.53965374E-08
   24.3600006       5.97269036E-07
   24.4799995       1.11348277E-06
   24.6000004       1.53594624E-06
   24.7199993       1.84186956E-06
   24.8400002       2.01508374E-06
   24.9599991       2.04699654E-06
   25.0799999       1.93712344E-06
   25.2000008       1.69315024E-06
   25.3199997       1.33051378E-06
   25.4400005       8.71518466E-07
   25.5599995       3.44033310E-07
   25.6800003      -2.20156011E-07
   25.7999992      -7.87241163E-07
   25.9200001      -1.32341597E-06
   26.0400009      -1.79690335E-06
   26.1599998      -2.17985644E-06
   26.2800007      -2.45000751E-06
   26.3999996      -2.59196258E-06
   26.5200005      -2.59805006E-06
   26.6399994      -2.46867580E-06
   26.7600002      -2.21216033E-06
   26.8799992      -1.84407691E-06
   27.0000000      -1.38614143E-06
   27.1200008      -8.64736137E-07
   27.2399998      -3.09179342E-07
   27.3600006       2.50137447E-07
   27.4799995       7.83610574E-07
   27.6000004       1.26415614E-06
   27.7199993       1.66869938E-06
   27.8400002       1.97932991E-06
   27.9599991       2.18406331E-06
   28.0799999       2.27717896E-06
   28.2000008       2.25914664E-06
   28.3199997       2.13617022E-06
   28.4400005       1.91942718E-06
   28.5599995       1.62407605E-06
   28.6800003       1.26813109E-06
   28.7999992       8.71296436E-07
   28.9200001       4.53846894E-07
   29.0400009       3.56230743E-08
   29.1599998      -3.64808727E-07
   29.2800007      -7.30805482E-07
   29.3999996      -1.04810238E-06
   29.5200005      -1.30508852E-06
   29.6399994      -1.49293226E-06
   29.7600002      -1.60559523E-06
   29.8799992      -1.63977302E-06
   30.0000000      -1.59479475E-06
   30.1200008      -1.47250910E-06
   30.2399998      -1.27716373E-06
   30.3600006      -1.01528371E-06
   30.4799995      -6.95531583E-07
   30.6000004      -3.28532451E-07
   30.7199993       7.33563041E-08
   30.8400002       4.96352811E-07
   30.9599991       9.25645907E-07
   31.0799999       1.34588072E-06
   31.2000008       1.74172033E-06
   31.3199997       2.09846371E-06
   31.4400005       2.40267923E-06
   31.5599995       2.64281721E-06
   31.6800003       2.80975087E-06
   31.7999992       2.89720811E-06
   31.9200001       2.90205730E-06
   32.0400009       2.82442693E-06
   32.1599998       2.66764800E-06
   32.2799988       2.43802992E-06
   32.4000015       2.14448869E-06
   32.5200005       1.79806125E-06
   32.6399994       1.41134615E-06
   32.7599983       9.97911684E-07
   32.8800011       5.71713883E-07
   33.0000000       1.46557412E-07
   33.1199989      -2.64375814E-07
   33.2400017      -6.48915886E-07
   33.3600006      -9.96208996E-07
   33.4799995      -1.29694297E-06
   33.5999985      -1.54350630E-06
   33.7200012      -1.73009846E-06
   33.8400002      -1.85280658E-06
   33.9599991      -1.90965966E-06
   34.0800018      -1.90066817E-06
   34.2000008      -1.82784345E-06
   34.3199997      -1.69519046E-06
   34.4399986      -1.50865571E-06
   34.5600014      -1.27601152E-06
   34.6800003      -1.00665795E-06
   34.7999992      -7.11328141E-07
   34.9199982      -4.01692432E-07
   35.0400009      -8.98658712E-08
   35.1599998       2.12159563E-07
   35.2799988       4.93126890E-07
   35.4000015       7.43125781E-07
   35.5200005       9.54154189E-07
   35.6399994       1.12057705E-06
   35.7599983       1.23943460E-06
   35.8800011       1.31056265E-06
   36.0000000       1.33650269E-06
   36.1199989       1.32219964E-06
   36.2400017       1.27450414E-06
   36.3600006       1.20152106E-06
   36.4799995       1.11185602E-06
   36.5999985       1.01383057E-06
   36.7200012       9.14738507E-07
   36.8400002       8.20212563E-07
   36.9599991       7.33764466E-07
   37.0800018       6.56542170E-07
   37.2000008       5.87330589E-07
   37.3199997       5.22794096E-07
   37.4399986       4.57939962E-07
   37.5600014       3.86755630E-07
   37.6800003       3.02958540E-07
   37.7999992       2.00782878E-07
   37.9199982       7.57253034E-08
   38.0400009      -7.48256426E-08
   38.1599998      -2.51139852E-07
   38.2799988      -4.50921817E-07
   38.4000015      -6.69335463E-07
   38.5200005      -8.99275449E-07
   38.6399994      -1.13185763E-06
   38.7599983      -1.35707785E-06
   38.8800011      -1.56457168E-06
   39.0000000      -1.74439742E-06
   39.1199989      -1.88776289E-06
   39.2400017      -1.98762109E-06
   39.3600006      -2.03908144E-06
   39.4799995      -2.03960030E-06
   39.5999985      -1.98894122E-06
   39.7200012      -1.88892409E-06
   39.8400002      -1.74301044E-06
   39.9599991      -1.55578380E-06
   40.0800018      -1.33240394E-06
   40.2000008      -1.07810934E-06
   40.3199997      -7.97836890E-07
   40.4399986      -4.96009250E-07
   40.5600014      -1.76515556E-07
   40.6800003       1.57116574E-07
   40.7999992       5.01388570E-07
   40.9199982       8.52393157E-07
   41.0400009       1.20534389E-06
   41.1599998       1.55415466E-06
   41.2799988       1.89114598E-06
   41.4000015       2.20694778E-06
   41.5200005       2.49063964E-06
   41.6399994       2.73015121E-06
   41.7599983       2.91290303E-06
   41.8800011       3.02664898E-06
   42.0000000       3.06044763E-06
   42.1199989       3.00567399E-06
   42.2400017       2.85697115E-06
   42.3600006       2.61304649E-06
   42.4799995       2.27721989E-06
   42.5999985       1.85766032E-06
   42.7200012       1.36726794E-06
   42.8400002       8.23193375E-07
   42.9599991       2.46019255E-07
   43.0800018      -3.41339728E-07
   43.2000008      -9.14937402E-07
   43.3199997      -1.45119611E-06
   43.4399986      -1.92829793E-06
   43.5600014      -2.32745992E-06
   43.6800003      -2.63399511E-06
   43.7999992      -2.83808731E-06
   43.9199982      -2.93522339E-06
   44.0400009      -2.92626919E-06
   44.1599998      -2.81719099E-06
   44.2799988      -2.61846776E-06
   44.4000015      -2.34424624E-06
   44.5200005      -2.01131957E-06
   44.6399994      -1.63800848E-06
   44.7599983      -1.24303381E-06
   44.8800011      -8.44450767E-07
   45.0000000      -4.58714879E-07
   45.1199989      -9.99231773E-08
   45.2400017       2.20735515E-07
   45.3600006       4.95309166E-07
   45.4799995       7.19190496E-07
   45.5999985       8.91018999E-07
   45.7200012       1.01239868E-06
   45.8400002       1.08746337E-06
   45.9599991       1.12232249E-06
   46.0800018       1.12442615E-06
   46.2000008       1.10188978E-06
   46.3199997       1.06282050E-06
   46.4399986       1.01468584E-06
   46.5600014       9.63764933E-07
   46.6800003       9.14721170E-07
   46.7999992       8.70322481E-07
   46.9199982       8.31334603E-07
   47.0400009       7.96592815E-07
   47.1599998       7.63249602E-07
   47.2799988       7.27179724E-07
   47.4000015       6.83508119E-07
   47.5200005       6.27217389E-07
   47.6399994       5.53779273E-07
   47.7599983       4.59754062E-07
   47.8800011       3.43299604E-07
   48.0000000       2.04540555E-07
   48.1199989       4.57601388E-08
   48.2400017      -1.28607425E-07
   48.3600006      -3.12186785E-07
   48.4799995      -4.97058011E-07
   48.5999985      -6.74302498E-07
   48.7200012      -8.34653349E-07
   48.8400002      -9.69188022E-07
   48.9599991      -1.07000358E-06
   49.0800018      -1.13081353E-06
   49.2000008      -1.14741761E-06
   49.3199997      -1.11800625E-06
   49.4399986      -1.04327989E-06
   49.5600014      -9.26380551E-07
   49.6800003      -7.72650765E-07
   49.7999992      -5.89248657E-07
   49.9199982      -3.84658676E-07
   50.0400009      -1.68144581E-07
   50.1599998       5.08099305E-08
   50.2799988       2.63029591E-07
   50.4000015       4.60110272E-07
   50.5200005       6.34789274E-07
   50.6399994       7.81210360E-07
   50.7599983       8.95077733E-07
   50.8800011       9.73705824E-07
   51.0000000       1.01597686E-06
   51.1199989       1.02222521E-06
   51.2400017       9.94068273E-07
   51.3600006       9.34206071E-07
   51.4799995       8.46208422E-07
   51.5999985       7.34307264E-07
   51.7200012       6.03204057E-07
   51.8400002       4.57901223E-07
   51.9599991       3.03556675E-07
   52.0800018       1.45359252E-07
   52.2000008      -1.15836105E-08
   52.3199997      -1.62356088E-07
   52.4399986      -3.02351651E-07
   52.5600014      -4.27405894E-07
   52.6800003      -5.33946320E-07
   52.7999992      -6.19155173E-07
   52.9199982      -6.81132235E-07
   53.0400009      -7.19038098E-07
   53.1599998      -7.33194781E-07
   53.2799988      -7.25116536E-07
   53.4000015      -6.97450957E-07
   53.5200005      -6.53814482E-07
   53.6399994      -5.98523798E-07
   53.7599983      -5.36236257E-07
   53.8800011      -4.71530313E-07
   54.0000000      -4.08470129E-07
   54.1199989      -3.50206960E-07
   54.2400017      -2.98670727E-07
   54.3600006      -2.54399140E-07
   54.4799995      -2.16535582E-07
   54.5999985      -1.83005895E-07
   54.7200012      -1.50858966E-07
   54.8400002      -1.16730526E-07
   54.9599991      -7.73705509E-08
   55.0800018      -3.01599918E-08
   55.2000008       2.64581850E-08
   55.3199997       9.27005388E-08
   55.4399986       1.67364320E-07
   55.5600014       2.47968217E-07
   55.6800003       3.31099926E-07
   55.7999992       4.12926823E-07
   55.9199982       4.89799618E-07
   56.0400009       5.58858801E-07
   56.1599998       6.18551212E-07
   56.2799988       6.68967118E-07
   56.4000015       7.11933751E-07
   56.5200005       7.50826246E-07
   56.6399994       7.90100046E-07
   56.7599983       8.34587411E-07
   56.8800011       8.88635327E-07
   57.0000000       9.55194992E-07
   57.1199989       1.03498405E-06
   57.2400017       1.12584723E-06
   57.3600006       1.22242204E-06
   57.4799995       1.31618538E-06
   57.5999985       1.39591657E-06
   57.7200012       1.44855892E-06
   57.8400002       1.46041236E-06
   57.9599991       1.41854741E-06
   58.0800018       1.31229228E-06
   58.2000008       1.13463136E-06
   58.3199997       8.83352357E-07
   58.4399986       5.61801187E-07
   58.5600014       1.79142859E-07
   58.6800003      -2.49924000E-07
   58.7999992      -7.05990487E-07
   58.9199982      -1.16623323E-06
   59.0400009      -1.60606612E-06
   59.1599998      -2.00098975E-06
   59.2799988      -2.32846764E-06
   59.4000015      -2.56965154E-06
   59.5200005      -2.71079443E-06
   59.6399994      -2.74423860E-06
   59.7599983      -2.66889174E-06
   59.8800011      -2.49017626E-06
   60.0000000      -2.21947198E-06
   60.1199989      -1.87312492E-06
   60.2400017      -1.47112780E-06
   60.3600006      -1.03559898E-06
   60.4799995      -5.89193064E-07
   60.5999985      -1.53573382E-07
   60.7200012       2.51939781E-07
   60.8400002       6.11456187E-07
   60.9599991       9.13275699E-07
   61.0800018       1.15028945E-06
   61.2000008       1.32002003E-06
   61.3199997       1.42432430E-06
   61.4399986       1.46880382E-06
   61.5600014       1.46198590E-06
   61.6800003       1.41434964E-06
   61.7999992       1.33727553E-06
   61.9199982       1.24200335E-06
   62.0400009       1.13867395E-06
   62.1599998       1.03552566E-06
   62.2799988       9.38302549E-07
   62.4000015       8.49914159E-07
   62.5200005       7.70367762E-07
   62.6399994       6.96971881E-07
   62.7599983       6.24789664E-07
   62.8800011       5.47297475E-07
   63.0000000       4.57191788E-07
   63.1199989       3.47269406E-07
   63.2400017       2.11305618E-07
   63.3600006       4.48522393E-08
   63.4799995      -1.54114005E-07
   63.5999985      -3.84747921E-07
   63.7200012      -6.43134058E-07
   63.8400002      -9.22341599E-07
   63.9599991      -1.21272740E-06
   64.0800018      -1.50245785E-06
   64.1999969      -1.77820209E-06
   64.3199997      -2.02593628E-06
   64.4400024      -2.23179109E-06
   64.5599976      -2.38288294E-06
   64.6800003      -2.46806076E-06
   64.8000031      -2.47853654E-06
   64.9199982      -2.40836016E-06
   65.0400009      -2.25472968E-06
   65.1600037      -2.01814350E-06
   65.2799988      -1.70240753E-06
   65.4000015      -1.31452225E-06
   65.5199966      -8.64476362E-07
   65.6399994      -3.64970873E-07
   65.7600021       1.68911356E-07
   65.8799973       7.20083790E-07
   66.0000000       1.26988584E-06
   66.1200027       1.79857636E-06
   66.2399979       2.28590739E-06
   66.3600006       2.71179033E-06
   66.4800034       3.05706180E-06
   66.5999985       3.30433863E-06
   66.7200012       3.43894044E-06
   66.8399963       3.44982936E-06
   66.9599991       3.33050639E-06
   67.0800018       3.07979280E-06
   67.1999969       2.70240957E-06
   67.3199997       2.20928109E-06
   67.4400024       1.61749495E-06
   67.5599976       9.49872287E-07
   67.6800003       2.34132131E-07
   67.8000031      -4.98333975E-07
   67.9199982      -1.21402479E-06
   68.0400009      -1.87914429E-06
   68.1600037      -2.46155150E-06
   68.2799988      -2.93271137E-06
   68.4000015      -3.26949726E-06
   68.5199966      -3.45570629E-06
   68.6399994      -3.48315825E-06
   68.7600021      -3.35228378E-06
   68.8799973      -3.07214532E-06
   69.0000000      -2.65987637E-06
   69.1200027      -2.13957924E-06
   69.2399979      -1.54075803E-06
   69.3600006      -8.96408267E-07
   69.4800034      -2.40908605E-07
   69.5999985       3.92123184E-07
   69.7200012       9.71850568E-07
   69.8399963       1.47196556E-06
   69.9599991       1.87204489E-06
   70.0800018       2.15842806E-06
   70.1999969       2.32458160E-06
   70.3199997       2.37095060E-06
   70.4400024       2.30434830E-06
   70.5599976       2.13696558E-06
   70.6800003       1.88511001E-06
   70.8000031       1.56779799E-06
   70.9199982       1.20531956E-06
   71.0400009       8.17891930E-07
   71.1600037       4.24487922E-07
   71.2799988       4.19074411E-08
   71.4000015      -3.15872882E-07
   71.5199966      -6.38063909E-07
   71.6399994      -9.17157877E-07
   71.7600021      -1.14878640E-06
   71.8799973      -1.33139088E-06
   72.0000000      -1.46575815E-06
   72.1200027      -1.55447754E-06
   72.2399979      -1.60136938E-06
   72.3600006      -1.61092998E-06
   72.4800034      -1.58782962E-06
   72.5999985      -1.53649125E-06
   72.7200012      -1.46077014E-06