  -30.0000000       0.00000000    
  -29.8799992       0.00000000    
  -29.7600002       0.00000000    
  -29.6399994       0.00000000    
  -29.5200005       0.00000000    
  -29.3999996       0.00000000    
  -29.2800007       1.83379752E-31
  -29.1599998       1.67826795E-30
  -29.0400009       8.88750541E-30
  -28.9200001       3.64873778E-29
  -28.7999992       1.27258806E-28
  -28.6800003       3.94895155E-28
  -28.5599995       1.14216216E-27
  -28.4400005       3.17470485E-27
  -28.3199997       8.38178964E-27
  -28.2000008       2.01225213E-26
  -28.0799999       4.18371642E-26
  -27.9599991       7.17848324E-26
  -27.8400002       9.46114657E-26
  -27.7199993       7.81261833E-26
  -27.6000004      -8.93846659E-27
  -27.4799995      -1.49651203E-25
  -27.3600006      -2.29243719E-25
  -27.2399998      -6.37457174E-26
  -27.1200008       3.96219071E-25
  -27.0000000       6.92399931E-25
  -26.8799992      -4.21394852E-25
  -26.7600002      -4.60745966E-24
  -26.6399994      -1.23136162E-23
  -26.5200005      -1.98405397E-23
  -26.3999996      -1.64144947E-23
  -26.2800007       1.55727138E-23
  -26.1599998       9.25770240E-23
  -26.0400009       2.10291839E-22
  -25.9200001       3.13705571E-22
  -25.7999992       2.69992605E-22
  -25.6800003      -1.24431562E-22
  -25.5599995      -1.05495911E-21
  -25.4400005      -2.47640770E-21
  -25.3199997      -3.79599767E-21
  -25.2000008      -3.60724781E-21
  -25.0799999       1.84821022E-22
  -24.9599991       9.39828395E-21
  -24.8400002       2.35091984E-20
  -24.7199993       3.69293427E-20
  -24.6000004       3.72624283E-20
  -24.4799995       7.33076378E-21
  -24.3600006      -6.62306068E-20
  -24.2399998      -1.77475685E-19
  -24.1200008      -2.83863726E-19
  -24.0000000      -2.99235456E-19
  -23.8799992      -1.13216637E-19
  -23.7600002       3.51494039E-19
  -23.6399994       1.05048660E-18
  -23.5200005       1.73340330E-18
  -23.3999996       1.92797044E-18
  -23.2800007       1.06171434E-18
  -23.1599998      -1.24791724E-18
  -23.0400009      -4.79358734E-18
  -22.9200001      -8.44253786E-18
  -22.7999992      -1.01232713E-17
  -22.6800003      -7.36807739E-18
  -22.5599995       1.53975969E-18
  -22.4400005       1.60933911E-17
  -22.3199997       3.23997514E-17
  -22.2000008       4.31514185E-17
  -22.0799999       3.93848053E-17
  -21.9599991       1.40613193E-17
  -21.8400002      -3.34184673E-17
  -21.7199993      -9.35386358E-17
  -21.6000004      -1.45965297E-16
  -21.4799995      -1.63430640E-16
  -21.3600006      -1.20359782E-16
  -21.2399998      -4.39766313E-18
  -21.1200008       1.72815328E-16
  -21.0000000       3.70092094E-16
  -20.8799992       5.20191891E-16
  -20.7600002       5.44077161E-16
  -20.6399994       3.74634996E-16
  -20.5200005      -1.46263002E-17
  -20.3999996      -5.83135015E-16
  -20.2800007      -1.20814967E-15
  -20.1599998      -1.69061646E-15
  -20.0400009      -1.78998158E-15
  -19.9200001      -1.29077350E-15
  -19.7999992      -9.38299424E-17
  -19.6800003       1.68920138E-15
  -19.5599995       3.67427180E-15
  -19.4400005       5.22026744E-15
  -19.3199997       5.55679787E-15
  -19.2000008       4.02875255E-15
  -19.0799999       4.10415733E-16
  -18.9599991      -4.81452723E-15
  -18.8400002      -1.03456409E-14
  -18.7199993      -1.42542635E-14
  -18.6000004      -1.45097150E-14
  -18.4799995      -9.74898500E-15
  -18.3600006      -4.92830205E-17
  -18.2399998       1.26266693E-14
  -18.1200008       2.46116112E-14
  -18.0000000       3.14611754E-14
  -17.8799992       2.94579289E-14
  -17.7600002       1.72224821E-14
  -17.6399994      -3.21061422E-15
  -17.5200005      -2.64265758E-14
  -17.3999996      -4.50082917E-14
  -17.2800007      -5.19715462E-14
  -17.1599998      -4.34621076E-14
  -17.0400009      -2.06561232E-14
  -16.9200001       1.00448917E-14
  -16.7999992       3.88607129E-14
  -16.6800003       5.60427186E-14
  -16.5599995       5.56375929E-14
  -16.4400005       3.80820490E-14
  -16.3199997       1.04136899E-14
  -16.2000008      -1.62417636E-14
  -16.0799999      -3.11184726E-14
  -15.9600000      -2.84904546E-14
  -15.8400002      -1.06027010E-14
  -15.7200003       1.25827176E-14
  -15.6000004       2.70552640E-14
  -15.4799995       2.06615629E-14
  -15.3599997      -1.09591511E-14
  -15.2399998      -6.08236741E-14
  -15.1199999      -1.11120856E-13
  -15.0000000      -1.38080370E-13
  -14.8800001      -1.19947888E-13
  -14.7600002      -4.57072836E-14
  -14.6400003       7.81617677E-14
  -14.5200005       2.25184265E-13
  -14.3999996       3.52002119E-13
  -14.2799997       4.07304805E-13
  -14.1599998       3.45608226E-13
  -14.0400000       1.43682971E-13
  -13.9200001      -1.83918852E-13
  -13.8000002      -5.75118295E-13
  -13.6800003      -9.21939174E-13
  -13.5600004      -1.08823681E-12
  -13.4399996      -9.44886964E-13
  -13.3199997      -4.17788471E-13
  -13.1999998       4.63370011E-13
  -13.0799999       1.53371228E-12
  -12.9600000       2.49849685E-12
  -12.8400002       2.98804709E-12
  -12.7200003       2.66059202E-12
  -12.6000004       1.33178754E-12
  -12.4799995      -9.08198646E-13
  -12.3599997      -3.63728969E-12
  -12.2399998      -6.14290519E-12
  -12.1199999      -7.57545936E-12
  -12.0000000      -7.18926871E-12
  -11.8800001      -4.60810079E-12
  -11.7600002      -2.92948683E-14
  -11.6400003       5.71584663E-12
  -11.5200005       1.12929544E-11
  -11.3999996       1.51759837E-11
  -11.2799997       1.60643547E-11
  -11.1599998       1.32843458E-11
  -11.0400000       7.04350987E-12
  -10.9200001      -1.55766621E-12
  -10.8000002      -1.07795968E-11
  -10.6800003      -1.86976129E-11
  -10.5600004      -2.37182947E-11
  -10.4399996      -2.49907404E-11
  -10.3199997      -2.25732124E-11
  -10.1999998      -1.72952104E-11
  -10.0799999      -1.03616022E-11
  -9.96000004      -2.84251615E-12
  -9.84000015       4.75526302E-12
  -9.72000027       1.26550723E-11
  -9.60000038       2.16176313E-11
  -9.47999954       3.24172772E-11
  -9.35999966       4.51447144E-11
  -9.23999977       5.85809734E-11
  -9.11999989       6.98985383E-11
  -9.00000000       7.48705195E-11
  -8.88000011       6.86252097E-11
  -8.76000023       4.68137681E-11
  -8.64000034       6.91832659E-12
  -8.52000046      -5.06340837E-11
  -8.39999962      -1.21844035E-10
  -8.27999973      -1.99151973E-10
  -8.15999985      -2.72052159E-10
  -8.03999996      -3.28092165E-10
  -7.92000008      -3.53945651E-10
  -7.80000019      -3.36270817E-10
  -7.67999983      -2.62216721E-10
  -7.55999994      -1.19653218E-10
  -7.44000006       1.02597403E-10
  -7.32000017       4.14166812E-10
  -7.19999981       8.21908153E-10
  -7.07999992       1.32801148E-09
  -6.96000004       1.92781102E-09
  -6.84000015       2.60795940E-09
  -6.71999979       3.34579453E-09
  -6.59999990       4.11060119E-09
  -6.48000002       4.86704765E-09
  -6.36000013       5.58045876E-09
  -6.23999977       6.22294616E-09
  -6.11999989       6.77898138E-09
  -6.00000000       7.24892857E-09
  -5.88000011       7.64944375E-09
  -5.76000023       8.01041189E-09
  -5.63999987       8.36900060E-09
  -5.51999998       8.76223805E-09
  -5.40000010       9.21996257E-09
  -5.28000021       9.75989956E-09
  -5.15999985       1.03860520E-08
  -5.03999996       1.10906706E-08
  -4.92000008       1.18590400E-08
  -4.80000019       1.26756481E-08
  -4.67999983       1.35299594E-08
  -4.55999994       1.44202783E-08
  -4.44000006       1.53548481E-08
  -4.32000017       1.63501941E-08
  -4.19999981       1.74274941E-08
  -4.07999992       1.86082350E-08
  -3.96000004       1.99104804E-08
  -3.83999991       2.13466844E-08
  -3.72000003       2.29234178E-08
  -3.59999990       2.46426684E-08
  -3.48000002       2.65039564E-08
  -3.35999990       2.85063244E-08
  -3.24000001       3.06494137E-08
  -3.11999989       3.29333893E-08
  -3.00000000       3.53579281E-08
  -2.88000011       3.79210121E-08
  -2.75999999       4.06184348E-08
  -2.64000010       4.34447180E-08
  -2.51999998       4.63957015E-08
  -2.40000010       4.94722627E-08
  -2.27999997       5.26842854E-08
  -2.16000009       5.60534090E-08
  -2.03999996       5.96135266E-08
  -1.91999996       6.34085850E-08
  -1.79999995       6.74881377E-08
  -1.67999995       7.19020719E-08
  -1.55999994       7.66962174E-08
  -1.44000006       8.19104216E-08
  -1.32000005       8.75796360E-08
  -1.20000005       9.37373130E-08
  -1.08000004       1.00419101E-07
 -0.959999979       1.07664590E-07
 -0.839999974       1.15515135E-07
 -0.720000029       1.24007485E-07
 -0.600000024       1.33164789E-07
 -0.479999989       1.42988497E-07
 -0.360000014       1.53454636E-07
 -0.239999995       1.64517857E-07
 -0.119999997       1.76123336E-07
  -1.11022302E-15   1.88224362E-07
  0.119999997       2.00800571E-07
  0.239999995       2.13870649E-07
  0.360000014       2.27495235E-07
  0.479999989       2.41767822E-07
  0.600000024       2.56796312E-07
  0.720000029       2.72681149E-07
  0.839999974       2.89496882E-07
  0.959999979       3.07283869E-07
   1.08000004       3.26053026E-07
   1.20000005       3.45801766E-07
   1.32000005       3.66535630E-07
   1.44000006       3.88287475E-07
   1.55999994       4.11127701E-07
   1.67999995       4.35161468E-07
   1.79999995       4.60514144E-07
   1.91999996       4.87310274E-07
   2.03999996       5.15653596E-07
   2.16000009       5.45614910E-07
   2.27999997       5.77231276E-07
   2.40000010       6.10516281E-07
   2.51999998       6.45476632E-07
   2.64000010       6.82128189E-07
   2.75999999       7.20506421E-07
   2.88000011       7.60667888E-07
   3.00000000       8.02684383E-07
   3.11999989       8.46633554E-07
   3.24000001       8.92591459E-07
   3.35999990       9.40631367E-07
   3.48000002       9.90828084E-07
   3.59999990       1.04326773E-06
   3.72000003       1.09805546E-06
   3.83999991       1.15531952E-06
   3.96000004       1.21520418E-06
   4.07999992       1.27785881E-06
   4.19999981       1.34342042E-06
   4.32000017       1.41200087E-06
   4.44000006       1.48367997E-06
   4.55999994       1.55850967E-06
   4.67999983       1.63652646E-06
   4.80000019       1.71776901E-06
   4.92000008       1.80229370E-06
   5.03999996       1.89018419E-06
   5.15999985       1.98155203E-06
   5.28000021       2.07652761E-06
   5.40000010       2.17524826E-06
   5.51999998       2.27784449E-06
   5.63999987       2.38442863E-06
   5.76000023       2.49509344E-06
   5.88000011       2.60991328E-06
   6.00000000       2.72895227E-06
   6.11999989       2.85227452E-06
   6.23999977       2.97995325E-06
   6.36000013       3.11207623E-06
   6.48000002       3.24874782E-06
   6.59999990       3.39008648E-06
   6.71999979       3.53621886E-06
   6.84000015       3.68727160E-06
   6.96000004       3.84336317E-06
   7.07999992       4.00459658E-06
   7.19999981       4.17105593E-06
   7.32000017       4.34280855E-06
   7.44000006       4.51990763E-06
   7.55999994       4.70240502E-06
   7.67999983       4.89035665E-06
   7.80000019       5.08383209E-06
   7.92000008       5.28291457E-06
   8.03999996       5.48769867E-06
   8.15999985       5.69827671E-06
   8.27999973       5.91472781E-06
   8.39999962       6.13710336E-06
   8.52000046       6.36542154E-06
   8.64000034       6.59966463E-06
   8.76000023       6.83978533E-06
   8.88000011       7.08571952E-06
   9.00000000       7.33739989E-06
   9.11999989       7.59477052E-06
   9.23999977       7.85779775E-06
   9.35999966       8.12646795E-06
   9.47999954       8.40078974E-06
   9.60000038       8.68078405E-06
   9.72000027       8.96646179E-06
   9.84000015       9.25781660E-06
   9.96000004       9.55479936E-06
   10.0799999       9.85731731E-06
   10.1999998       1.01652276E-05
   10.3199997       1.04783412E-05
   10.4399996       1.07964470E-05
   10.5600004       1.11193285E-05
   10.6800003       1.14467921E-05
   10.8000002       1.17786849E-05
   10.9200001       1.21148942E-05
   11.0400000       1.24553471E-05
   11.1599998       1.27999774E-05
   11.2799997       1.31486959E-05
   11.3999996       1.35013579E-05
   11.5200005       1.38577370E-05
   11.6400003       1.42175177E-05
   11.7600002       1.45803033E-05
   11.8800001       1.49456437E-05
   12.0000000       1.53130677E-05
   12.1199999       1.56821134E-05
   12.2399998       1.60523541E-05
   12.3599997       1.64234170E-05
   12.4799995       1.67949620E-05
   12.6000004       1.71666761E-05
   12.7200003       1.75382429E-05
   12.8400002       1.79093186E-05
   12.9600000       1.82794956E-05
   13.0799999       1.86482976E-05
   13.1999998       1.90151732E-05
   13.3199997       1.93794913E-05
   13.4399996       1.97405770E-05
   13.5600004       2.00977283E-05
   13.6800003       2.04502485E-05
   13.8000002       2.07974535E-05
   13.9200001       2.11386960E-05
   14.0400000       2.14733409E-05
   14.1599998       2.18007663E-05
   14.2799997       2.21203245E-05
   14.3999996       2.24313444E-05
   14.5200005       2.27331111E-05
   14.6400003       2.30248952E-05
   14.7600002       2.33059491E-05
   14.8800001       2.35755324E-05
   15.0000000       2.38329194E-05
   15.1199999       2.40773788E-05
   15.2399998       2.43081449E-05
   15.3599997       2.45243900E-05
   15.4799995       2.47251974E-05
   15.6000004       2.49095483E-05
   15.7200003       2.50763442E-05
   15.8400002       2.52244281E-05
   15.9600000       2.53526541E-05
   16.0799999       2.54599254E-05
   16.2000008       2.55452360E-05
   16.3199997       2.56076655E-05
   16.4400005       2.56463845E-05
   16.5599995       2.56605890E-05
   16.6800003       2.56494714E-05
   16.7999992       2.56121493E-05
   16.9200001       2.55476443E-05
   17.0400009       2.54548522E-05
   17.1599998       2.53325506E-05
   17.2800007       2.51794299E-05
   17.3999996       2.49941349E-05
   17.5200005       2.47753123E-05
   17.6399994       2.45216524E-05
   17.7600002       2.42319184E-05
   17.8799992       2.39049514E-05
   18.0000000       2.35396492E-05
   18.1200008       2.31349422E-05
   18.2399998       2.26897591E-05
   18.3600006       2.22029867E-05
   18.4799995       2.16734607E-05
   18.6000004       2.10999424E-05
   18.7199993       2.04811313E-05
   18.8400002       1.98156831E-05
   18.9599991       1.91022173E-05
   19.0799999       1.83393458E-05
   19.2000008       1.75256901E-05
   19.3199997       1.66598857E-05
   19.4400005       1.57406012E-05
   19.5599995       1.47665342E-05
   19.6800003       1.37364132E-05
   19.7999992       1.26489776E-05
   19.9200001       1.15029525E-05
   20.0400009       1.02970380E-05
   20.1599998       9.02989632E-06
   20.2800007       7.70015140E-06
   20.3999996       6.30639943E-06
   20.5200005       4.84723159E-06
   20.6399994       3.32124864E-06
   20.7600002       1.72707394E-06
   20.8799992       6.33556567E-08
   21.0000000      -1.67124438E-06
   21.1200008      -3.47806258E-06
   21.2399998      -5.35845084E-06
   21.3600006      -7.31378395E-06
   21.4799995      -9.34546097E-06
   21.6000004      -1.14548966E-05
   21.7199993      -1.36435146E-05
   21.8400002      -1.59127339E-05
   21.9599991      -1.82639506E-05
   22.0799999      -2.06985369E-05
   22.2000008      -2.32178427E-05
   22.3199997      -2.58231921E-05
   22.4400005      -2.85159022E-05
   22.5599995      -3.12972770E-05
   22.6800003      -3.41686427E-05
   22.7999992      -3.71313399E-05
   22.9200001      -4.01867546E-05
   23.0400009      -4.33362766E-05
   23.1599998      -4.65813064E-05
   23.2800007      -4.99232228E-05
   23.3999996      -5.33633611E-05
   23.5200005      -5.69029871E-05
   23.6399994      -6.05433124E-05
   23.7600002      -6.42855011E-05
   23.8799992      -6.81306774E-05
   24.0000000      -7.20799944E-05
   24.1200008      -7.61345873E-05
   24.2399998      -8.02956565E-05
   24.3600006      -8.45644026E-05
   24.4799995      -8.89420553E-05
   24.6000004      -9.34298077E-05
   24.7199993      -9.80287950E-05
   24.8400002      -1.02740123E-04
   24.9599991      -1.07564811E-04
   25.0799999      -1.12503847E-04
   25.2000008      -1.17558135E-04
   25.3199997      -1.22728539E-04
   25.4400005      -1.28015890E-04
   25.5599995      -1.33420966E-04
   25.6800003      -1.38944539E-04
   25.7999992      -1.44587320E-04
   25.9200001      -1.50350053E-04
   26.0400009      -1.56233422E-04
   26.1599998      -1.62238095E-04
   26.2800007      -1.68364713E-04
   26.3999996      -1.74613800E-04
   26.5200005      -1.80985851E-04
   26.6399994      -1.87481288E-04
   26.7600002      -1.94100401E-04
   26.8799992      -2.00843409E-04
   27.0000000      -2.07710429E-04
   27.1200008      -2.14701518E-04
   27.2399998      -2.21816677E-04
   27.3600006      -2.29055804E-04
   27.4799995      -2.36418797E-04
   27.6000004      -2.43905437E-04
   27.7199993      -2.51515477E-04
   27.8400002      -2.59248598E-04
   27.9599991      -2.67104333E-04
   28.0799999      -2.75082217E-04
   28.2000008      -2.83181551E-04
   28.3199997      -2.91401637E-04
   28.4400005      -2.99741601E-04
   28.5599995      -3.08200368E-04
   28.6800003      -3.16776801E-04
   28.7999992      -3.25469679E-04
   28.9200001      -3.34277574E-04
   29.0400009      -3.43199004E-04
   29.1599998      -3.52232397E-04
   29.2800007      -3.61376035E-04
   29.3999996      -3.70628055E-04
   29.5200005      -3.79986566E-04
   29.6399994      -3.89449415E-04
   29.7600002      -3.99014418E-04
   29.8799992      -4.08679189E-04
   30.0000000      -4.18441283E-04
   30.1200008      -4.28297964E-04
   30.2399998      -4.38246556E-04
   30.3600006      -4.48284176E-04
   30.4799995      -4.58407798E-04
   30.6000004      -4.68614278E-04
   30.7199993      -4.78900212E-04
   30.8400002      -4.89261991E-04
   30.9599991      -4.99695889E-04
   31.0799999      -5.10197831E-04
   31.2000008      -5.20763744E-04
   31.3199997      -5.31389436E-04
   31.4400005      -5.42070600E-04
   31.5599995      -5.52802521E-04
   31.6800003      -5.63580717E-04
   31.7999992      -5.74400474E-04
   31.9200001      -5.85256668E-04
   32.0400009      -5.96144353E-04
   32.1599998      -6.07058289E-04
   32.2799988      -6.17992948E-04
   32.4000015      -6.28942740E-04
   32.5200005      -6.39901788E-04
   32.6399994      -6.50864153E-04
   32.7599983      -6.61823608E-04
   32.8800011      -6.72773691E-04
   33.0000000      -6.83708000E-04
   33.1199989      -6.94619783E-04
   33.2400017      -7.05502345E-04
   33.3600006      -7.16348819E-04
   33.4799995      -7.27152161E-04
   33.5999985      -7.37905153E-04
   33.7200012      -7.48600636E-04
   33.8400002      -7.59231218E-04
   33.9599991      -7.69789389E-04
   34.0800018      -7.80267583E-04
   34.2000008      -7.90657941E-04
   34.3199997      -8.00952548E-04
   34.4399986      -8.11143487E-04
   34.5600014      -8.21222260E-04
   34.6800003      -8.31180718E-04
   34.7999992      -8.41010362E-04
   34.9199982      -8.50702752E-04
   35.0400009      -8.60249274E-04
   35.1599998      -8.69641488E-04
   35.2799988      -8.78870836E-04
   35.4000015      -8.87928589E-04
   35.5200005      -8.96806130E-04
   35.6399994      -9.05494671E-04
   35.7599983      -9.13985481E-04
   35.8800011      -9.22269654E-04
   36.0000000      -9.30338225E-04
   36.1199989      -9.38182406E-04
   36.2400017      -9.45793290E-04
   36.3600006      -9.53162205E-04
   36.4799995      -9.60280304E-04
   36.5999985      -9.67138738E-04
   36.7200012      -9.73728893E-04
   36.8400002      -9.80042038E-04
   36.9599991      -9.86069557E-04
   37.0800018      -9.91803128E-04
   37.2000008      -9.97234369E-04
   37.3199997      -1.00235490E-03
   37.4399986      -1.00715691E-03
   37.5600014      -1.01163238E-03
   37.6800003      -1.01577351E-03
   37.7999992      -1.01957249E-03
   37.9199982      -1.02302176E-03
   38.0400009      -1.02611387E-03
   38.1599998      -1.02884159E-03
   38.2799988      -1.03119796E-03
   38.4000015      -1.03317620E-03
   38.5200005      -1.03476993E-03
   38.6399994      -1.03597308E-03
   38.7599983      -1.03677972E-03
   38.8800011      -1.03718403E-03
   39.0000000      -1.03718077E-03
   39.1199989      -1.03676482E-03
   39.2400017      -1.03593117E-03
   39.3600006      -1.03467540E-03
   39.4799995      -1.03299331E-03
   39.5999985      -1.03088119E-03
   39.7200012      -1.02833554E-03
   39.8400002      -1.02535333E-03
   39.9599991      -1.02193188E-03
   40.0800018      -1.01806910E-03
   40.2000008      -1.01376267E-03
   40.3199997      -1.00901152E-03
   40.4399986      -1.00381416E-03
   40.5600014      -9.98170348E-04
   40.6800003      -9.92079615E-04
   40.7999992      -9.85542545E-04
   40.9199982      -9.78559488E-04
   41.0400009      -9.71131551E-04
   41.1599998      -9.63260536E-04
   41.2799988      -9.54948249E-04
   41.4000015      -9.46197310E-04
   41.5200005      -9.37010685E-04
   41.6399994      -9.27391928E-04
   41.7599983      -9.17344878E-04
   41.8800011      -9.06874309E-04
   42.0000000      -8.95985111E-04
   42.1199989      -8.84682813E-04
   42.2400017      -8.72973586E-04
   42.3600006      -8.60863714E-04
   42.4799995      -8.48360185E-04
   42.5999985      -8.35470273E-04
   42.7200012      -8.22201720E-04
   42.8400002      -8.08562734E-04
   42.9599991      -7.94561987E-04
   43.0800018      -7.80208793E-04
   43.2000008      -7.65512930E-04
   43.3199997      -7.50484760E-04
   43.4399986      -7.35134818E-04
   43.5600014      -7.19474105E-04
   43.6800003      -7.03513972E-04
   43.7999992      -6.87266234E-04
   43.9199982      -6.70742942E-04
   44.0400009      -6.53956493E-04
   44.1599998      -6.36919984E-04
   44.2799988      -6.19646744E-04
   44.4000015      -6.02150569E-04
   44.5200005      -5.84445661E-04
   44.6399994      -5.66546281E-04
   44.7599983      -5.48467098E-04
   44.8800011      -5.30222896E-04
   45.0000000      -5.11828577E-04
   45.1199989      -4.93299507E-04
   45.2400017      -4.74651140E-04
   45.3600006      -4.55899222E-04
   45.4799995      -4.37059673E-04
   45.5999985      -4.18148556E-04
   45.7200012      -3.99181998E-04
   45.8400002      -3.80176207E-04
   45.9599991      -3.61147453E-04
   46.0800018      -3.42111976E-04
   46.2000008      -3.23086249E-04
   46.3199997      -3.04086774E-04
   46.4399986      -2.85130081E-04
   46.5600014      -2.66232790E-04
   46.6800003      -2.47411313E-04
   46.7999992      -2.28681980E-04
   46.9199982      -2.10060956E-04
   47.0400009      -1.91564177E-04
   47.1599998      -1.73207460E-04
   47.2799988      -1.55006492E-04
   47.4000015      -1.36976771E-04
   47.5200005      -1.19133678E-04
   47.6399994      -1.01492282E-04
   47.7599983      -8.40673674E-05
   47.8800011      -6.68733483E-05
   48.0000000      -4.99242742E-05
   48.1199989      -3.32338168E-05
   48.2400017      -1.68152947E-05
   48.3600006      -6.81700044E-07
   48.4799995       1.51543090E-05
   48.5999985       3.06804141E-05
   48.7200012       4.58846844E-05
   48.8400002       6.07556467E-05
   48.9599991       7.52823034E-05
   49.0800018       8.94541954E-05
   49.2000008       1.03261395E-04
   49.3199997       1.16694515E-04
   49.4399986       1.29744731E-04
   49.5600014       1.42403733E-04
   49.6800003       1.54663736E-04
   49.7999992       1.66517522E-04
   49.9199982       1.77958485E-04
   50.0400009       1.88980557E-04
   50.1599998       1.99578295E-04
   50.2799988       2.09746780E-04
   50.4000015       2.19481662E-04
   50.5200005       2.28779187E-04
   50.6399994       2.37636094E-04
   50.7599983       2.46049749E-04
   50.8800011       2.54018116E-04
   51.0000000       2.61539826E-04
   51.1199989       2.68614152E-04
   51.2400017       2.75241036E-04
   51.3600006       2.81421089E-04
   51.4799995       2.87155388E-04
   51.5999985       2.92445678E-04
   51.7200012       2.97294144E-04
   51.8400002       3.01703549E-04
   51.9599991       3.05677153E-04
   52.0800018       3.09218827E-04
   52.2000008       3.12332937E-04
   52.3199997       3.15024430E-04
   52.4399986       3.17298836E-04
   52.5600014       3.19162093E-04
   52.6800003       3.20620689E-04
   52.7999992       3.21681640E-04
   52.9199982       3.22352280E-04
   53.0400009       3.22640408E-04
   53.1599998       3.22554202E-04
   53.2799988       3.22102249E-04
   53.4000015       3.21293512E-04
   53.5200005       3.20137246E-04
   53.6399994       3.18643113E-04
   53.7599983       3.16821184E-04
   53.8800011       3.14681733E-04
   54.0000000       3.12235352E-04
   54.1199989       3.09492956E-04
   54.2400017       3.06465721E-04
   54.3600006       3.03165085E-04
   54.4799995       2.99602572E-04
   54.5999985       2.95790029E-04
   54.7200012       2.91739270E-04
   54.8400002       2.87462230E-04
   54.9599991       2.82970897E-04
   55.0800018       2.78277264E-04
   55.2000008       2.73393438E-04
   55.3199997       2.68331525E-04
   55.4399986       2.63103720E-04
   55.5600014       2.57722219E-04
   55.6800003       2.52199388E-04
   55.7999992       2.46547454E-04
   55.9199982       2.40778711E-04
   56.0400009       2.34905237E-04
   56.1599998       2.28939040E-04
   56.2799988       2.22892006E-04
   56.4000015       2.16775792E-04
   56.5200005       2.10601938E-04
   56.6399994       2.04381722E-04
   56.7599983       1.98126261E-04
   56.8800011       1.91846470E-04
   57.0000000       1.85552999E-04
   57.1199989       1.79256356E-04
   57.2400017       1.72966713E-04
   57.3600006       1.66694008E-04
   57.4799995       1.60447904E-04
   57.5999985       1.54237729E-04
   57.7200012       1.48072591E-04
   57.8400002       1.41961267E-04
   57.9599991       1.35912254E-04
   58.0800018       1.29933775E-04
   58.2000008       1.24033730E-04
   58.3199997       1.18219694E-04
   58.4399986       1.12498914E-04
   58.5600014       1.06878244E-04
   58.6800003       1.01364145E-04
   58.7999992       9.59626777E-05
   58.9199982       9.06795030E-05
   59.0400009       8.55198814E-05
   59.1599998       8.04887022E-05
   59.2799988       7.55904985E-05
   59.4000015       7.08294610E-05
   59.5200005       6.62094535E-05
   59.6399994       6.17340047E-05
   59.7599983       5.74063270E-05
   59.8800011       5.32292906E-05
   60.0000000       4.92054314E-05
   60.1199989       4.53369539E-05
   60.2400017       4.16257026E-05
   60.3600006       3.80731653E-05
   60.4799995       3.46804663E-05
   60.5999985       3.14483841E-05
   60.7200012       2.83773552E-05
   60.8400002       2.54675015E-05
   60.9599991       2.27186538E-05
   61.0800018       2.01303701E-05
   61.2000008       1.77019283E-05
   61.3199997       1.54323498E-05
   61.4399986       1.33203876E-05
   61.5600014       1.13645447E-05
   61.6800003       9.56307213E-06
   61.7999992       7.91399270E-06
   61.9199982       6.41511406E-06
   62.0400009       5.06404331E-06
   62.1599998       3.85819021E-06
   62.2799988       2.79477536E-06
   62.4000015       1.87083037E-06
   62.5200005       1.08320046E-06
   62.6399994       4.28554927E-07
   62.7599983      -9.65960680E-08
   62.8800011      -4.95880954E-07
   63.0000000      -7.73045315E-07
   63.1199989      -9.31935119E-07
   63.2400017      -9.76480578E-07
   63.3600006      -9.10684435E-07
   63.4799995      -7.38613039E-07
   63.5999985      -4.64387682E-07
   63.7200012      -9.21805494E-08
   63.8400002       3.73785639E-07
   63.9599991       9.29235625E-07
   64.0800018       1.56983333E-06
   64.1999969       2.29117813E-06
   64.3199997       3.08881340E-06
   64.4400024       3.95824600E-06
   64.5599976       4.89498416E-06
   64.6800003       5.89456977E-06
   64.8000031       6.95261997E-06
   64.9199982       8.06484059E-06
   65.0400009       9.22703202E-06
   65.1600037       1.04350720E-05
   65.2799988       1.16848896E-05
   65.4000015       1.29724567E-05
   65.5199966       1.42937733E-05
   65.6399994       1.56448859E-05
   65.7600021       1.70218991E-05
   65.8799973       1.84210039E-05
   66.0000000       1.98384769E-05
   66.1200027       2.12706873E-05
   66.2399979       2.27141027E-05
   66.3600006       2.41652724E-05
   66.4800034       2.56208368E-05
   66.5999985       2.70775308E-05
   66.7200012       2.85322076E-05
   66.8399963       2.99818421E-05
   66.9599991       3.14235513E-05
   67.0800018       3.28545866E-05
   67.1999969       3.42723288E-05
   67.3199997       3.56742676E-05
   67.4400024       3.70580310E-05
   67.5599976       3.84213527E-05
   67.6800003       3.97620861E-05
   67.8000031       4.10782304E-05
   67.9199982       4.23679121E-05
   68.0400009       4.36293813E-05
   68.1600037       4.48610299E-05
   68.2799988       4.60613555E-05
   68.4000015       4.72289357E-05
   68.5199966       4.83624099E-05
   68.6399994       4.94604865E-05
   68.7600021       5.05219432E-05
   68.8799973       5.15456413E-05
   69.0000000       5.25305732E-05
   69.1200027       5.34758910E-05
   69.2399979       5.43809401E-05
   69.3600006       5.52452511E-05
   69.4800034       5.60685221E-05
   69.5999985       5.68505493E-05
   69.7200012       5.75911909E-05
   69.8399963       5.82902976E-05
   69.9599991       5.89477022E-05
   70.0800018       5.95632482E-05
   70.1999969       6.01368229E-05
   70.3199997       6.06684443E-05
   70.4400024       6.11582946E-05
   70.5599976       6.16067045E-05
   70.6800003       6.20141655E-05
   70.8000031       6.23812230E-05
   70.9199982       6.27084373E-05
   71.0400009       6.29963688E-05
   71.1600037       6.32455703E-05
   71.2799988       6.34566095E-05
   71.4000015       6.36301847E-05
   71.5199966       6.37670673E-05
   71.6399994       6.38681449E-05
   71.7600021       6.39343634E-05
   71.8799973       6.39666250E-05
   72.0000000       6.39658028E-05
   72.1200027       6.39327045E-05
   72.2399979       6.38680649E-05
   72.3600006       6.37726916E-05
   72.4800034       6.36474506E-05
   72.5999985       6.34933749E-05
   72.7200012       6.33115706E-05