  -30.0000000       0.00000000    
  -29.8799992       0.00000000    
  -29.7600002       0.00000000    
  -29.6399994       0.00000000    
  -29.5200005       0.00000000    
  -29.3999996       0.00000000    
  -29.2800007       0.00000000    
  -29.1599998       0.00000000    
  -29.0400009       5.58441367E-34
  -28.9200001       8.74372371E-34
  -28.7999992      -2.31814172E-32
  -28.6800003      -1.44953253E-31
  -28.5599995      -2.43818217E-31
  -28.4400005       1.13839453E-30
  -28.3199997       8.43633300E-30
  -28.2000008       2.55357547E-29
  -28.0799999       3.30446034E-29
  -27.9599991      -6.33323946E-29
  -27.8400002      -4.73209558E-28
  -27.7199993      -1.40153870E-27
  -27.6000004      -2.53998459E-27
  -27.4799995      -2.14816627E-27
  -27.3600006       3.50977005E-27
  -27.2399998       1.83760264E-26
  -27.1200008       3.99999256E-26
  -27.0000000       4.83966751E-26
  -26.8799992      -1.35496249E-27
  -26.7600002      -1.63088721E-25
  -26.6399994      -4.35848658E-25
  -26.5200005      -6.49526770E-25
  -26.3999996      -3.61574273E-25
  -26.2800007       1.07374136E-24
  -26.1599998       4.03384655E-24
  -26.0400009       7.62567619E-24
  -25.9200001       8.45393754E-24
  -25.7999992       2.45569984E-25
  -25.6800003      -2.37871350E-23
  -25.5599995      -6.40413249E-23
  -25.4400005      -1.03482843E-22
  -25.3199997      -9.79929580E-23
  -25.2000008       1.95887510E-23
  -25.0799999       3.05708289E-22
  -24.9599991       7.34050395E-22
  -24.8400002       1.10272889E-21
  -24.7199993       9.81712936E-22
  -24.6000004      -1.97487528E-22
  -24.4799995      -2.81091825E-21
  -24.3600006      -6.46806529E-21
  -24.2399998      -9.40475518E-21
  -24.1200008      -8.32319876E-21
  -24.0000000       6.83084780E-22
  -23.8799992       1.96878938E-20
  -23.7600002       4.53149993E-20
  -23.6399994       6.55606616E-20
  -23.5200005       5.99252158E-20
  -23.3999996       5.96149471E-21
  -23.2800007      -1.06526717E-19
  -23.1599998      -2.56850230E-19
  -23.0400009      -3.79538227E-19
  -22.9200001      -3.68814761E-19
  -22.7999992      -1.13715104E-19
  -22.6800003       4.34650273E-19
  -22.5599995       1.18211141E-18
  -22.4400005       1.83774427E-18
  -22.3199997       1.94092244E-18
  -22.2000008       1.01008844E-18
  -22.0799999      -1.19175778E-18
  -21.9599991      -4.35241552E-18
  -21.8400002      -7.41615809E-18
  -21.7199993      -8.67779051E-18
  -21.6000004      -6.28743375E-18
  -21.4799995       8.66287902E-19
  -21.3600006       1.21470017E-17
  -21.2399998       2.44871336E-17
  -21.1200008       3.25458646E-17
  -21.0000000       3.00570204E-17
  -20.8799992       1.23002386E-17
  -20.7600002      -2.09344011E-17
  -20.6399994      -6.30205284E-17
  -20.5200005      -1.00127546E-16
  -20.3999996      -1.13807373E-16
  -20.2800007      -8.66697677E-17
  -20.1599998      -1.00627059E-17
  -20.0400009       1.08523509E-16
  -19.9200001       2.41334351E-16
  -19.7999992       3.42381199E-16
  -19.6800003       3.57302426E-16
  -19.5599995       2.40563710E-16
  -19.4400005      -2.32869822E-17
  -19.3199997      -4.00385195E-16
  -19.2000008      -7.98326806E-16
  -19.0799999      -1.07494696E-15
  -18.9599991      -1.07016334E-15
  -18.8400002      -6.59550463E-16
  -18.7199993       1.80986602E-16
  -18.6000004       1.32002282E-15
  -18.4799995       2.45202825E-15
  -18.3600006       3.14067980E-15
  -18.2399998       2.93528871E-15
  -18.1200008       1.54523924E-15
  -18.0000000      -9.75214761E-16
  -17.8799992      -4.10589226E-15
  -17.7600002      -6.88237182E-15
  -17.6399994      -8.11056917E-15
  -17.5200005      -6.76034613E-15
  -17.3999996      -2.44025915E-15
  -17.2800007       4.21763581E-15
  -17.1599998       1.14582704E-14
  -17.0400009       1.67307252E-14
  -16.9200001       1.74479097E-14
  -16.7999992       1.20008822E-14
  -16.6800003       6.84859807E-16
  -16.5599995      -1.38729868E-14
  -16.4400005      -2.71032417E-14
  -16.3199997      -3.37668532E-14
  -16.2000008      -2.98244095E-14
  -16.0799999      -1.42934896E-14
  -15.9600000       9.66108585E-15
  -15.8400002       3.50232471E-14
  -15.7200003       5.27998970E-14
  -15.6000004       5.50621153E-14
  -15.4799995       3.81792918E-14
  -15.3599997       4.99603792E-15
  -15.2399998      -3.51138694E-14
  -15.1199999      -6.87230424E-14
  -15.0000000      -8.28126494E-14
  -14.8800001      -6.97803021E-14
  -14.7600002      -3.10892296E-14
  -14.6400003       2.21061471E-14
  -14.5200005       7.20585023E-14
  -14.3999996       1.00539009E-13
  -14.2799997       9.59075281E-14
  -14.1599998       5.83821931E-14
  -14.0400000       1.08378268E-15
  -13.9200001      -5.41649956E-14
  -13.8000002      -8.52451993E-14
  -13.6800003      -7.93578731E-14
  -13.5600004      -3.98540115E-14
  -13.4399996       1.31799258E-14
  -13.3199997       4.99207812E-14
  -13.1999998       4.36573825E-14
  -13.0799999      -1.51373665E-14
  -12.9600000      -1.09584556E-13
  -12.8400002      -1.97223612E-13
  -12.7200003      -2.22818156E-13
  -12.6000004      -1.40360502E-13
  -12.4799995       6.29920310E-14
  -12.3599997       3.50674053E-13
  -12.2399998       6.36680053E-13
  -12.1199999       8.05524972E-13
  -12.0000000       7.48875625E-13
  -11.8800001       4.08452975E-13
  -11.7600002      -1.89522809E-13
  -11.6400003      -9.22593490E-13
  -11.5200005      -1.59150026E-12
  -11.3999996      -1.96960634E-12
  -11.2799997      -1.87056512E-12
  -11.1599998      -1.21468558E-12
  -11.0400000      -7.23590092E-14
  -10.9200001       1.33222871E-12
  -10.8000002       2.66309934E-12
  -10.6800003       3.55261718E-12
  -10.5600004       3.69993402E-12
  -10.4399996       2.96092686E-12
  -10.3199997       1.40344138E-12
  -10.1999998      -6.90023776E-13
  -10.0799999      -2.87626997E-12
  -9.96000004      -4.65069172E-12
  -9.84000015      -5.56797100E-12
  -9.72000027      -5.35387836E-12
  -9.60000038      -3.97954369E-12
  -9.47999954      -1.67875251E-12
  -9.35999966       1.09698080E-12
  -9.23999977       3.77542702E-12
  -9.11999989       5.79002558E-12
  -9.00000000       6.70625187E-12
  -8.88000011       6.31914573E-12
  -8.76000023       4.70044229E-12
  -8.64000034       2.18540637E-12
  -8.52000046      -6.97437930E-13
  -8.39999962      -3.33891638E-12
  -8.27999973      -5.18131415E-12
  -8.15999985      -5.84344639E-12
  -8.03999996      -5.21280154E-12
  -7.92000008      -3.48354809E-12
  -7.80000019      -1.12755378E-12
  -7.67999983       1.20264129E-12
  -7.55999994       2.82550264E-12
  -7.44000006       3.20836586E-12
  -7.32000017       2.13089312E-12
  -7.19999981      -2.11073116E-13
  -7.07999992      -3.19952073E-12
  -6.96000004      -5.90450692E-12
  -6.84000015      -7.29918383E-12
  -6.71999979      -6.53577019E-12
  -6.59999990      -3.21401131E-12
  -6.48000002       2.43374938E-12
  -6.36000013       9.50192876E-12
  -6.23999977       1.65416795E-11
  -6.11999989       2.18422450E-11
  -6.00000000       2.38023681E-11
  -5.88000011       2.13049040E-11
  -5.76000023       1.40068087E-11
  -5.63999987       2.47953654E-12
  -5.51999998      -1.18270385E-11
  -5.40000010      -2.67839050E-11
  -5.28000021      -3.99019429E-11
  -5.15999985      -4.87135957E-11
  -5.03999996      -5.11618282E-11
  -4.92000008      -4.59504761E-11
  -4.80000019      -3.28189281E-11
  -4.67999983      -1.27060289E-11
  -4.55999994       1.22347384E-11
  -4.44000006       3.88064719E-11
  -4.32000017       6.31498534E-11
  -4.19999981       8.13212969E-11
  -4.07999992       8.99998964E-11
  -3.96000004       8.71933914E-11
  -3.83999991       7.27684579E-11
  -3.72000003       4.86278066E-11
  -3.59999990       1.84104468E-11
  -3.48000002      -1.32990034E-11
  -3.35999990      -4.21250951E-11
  -3.24000001      -6.51625837E-11
  -3.11999989      -8.20109744E-11
  -3.00000000      -9.52675300E-11
  -2.88000011      -1.10282644E-10
  -2.75999999      -1.34177086E-10
  -2.64000010      -1.74336795E-10
  -2.51999998      -2.36768466E-10
  -2.40000010      -3.24758692E-10
  -2.27999997      -4.38203390E-10
  -2.16000009      -5.73781023E-10
  -2.03999996      -7.25895510E-10
  -1.91999996      -8.88092433E-10
  -1.79999995      -1.05453068E-09
  -1.67999995      -1.22111110E-09
  -1.55999994      -1.38600653E-09
  -1.44000006      -1.54955082E-09
  -1.32000005      -1.71364289E-09
  -1.20000005      -1.88093274E-09
  -1.08000004      -2.05406536E-09
 -0.959999979      -2.23515162E-09
 -0.839999974      -2.42551357E-09
 -0.720000029      -2.62563460E-09
 -0.600000024      -2.83522139E-09
 -0.479999989      -3.05333225E-09
 -0.360000014      -3.27860450E-09
 -0.239999995      -3.50967566E-09
 -0.119999997      -3.74587028E-09
  -1.11022302E-15  -3.98810807E-09
  0.119999997      -4.23982982E-09
  0.239999995      -4.50759607E-09
  0.360000014      -4.80099294E-09
  0.479999989      -5.13160447E-09
  0.600000024      -5.51110135E-09
  0.720000029      -5.94881211E-09
  0.839999974      -6.44943832E-09
  0.959999979      -7.01164193E-09
   1.08000004      -7.62809105E-09
   1.20000005      -8.28715496E-09
   1.32000005      -8.97592844E-09
   1.44000006      -9.68381819E-09
   1.55999994      -1.04056683E-08
   1.67999995      -1.11434595E-08
   1.79999995      -1.19060273E-08
   1.91999996      -1.27068436E-08
   2.03999996      -1.35605172E-08
   2.16000009      -1.44791565E-08
   2.27999997      -1.54697766E-08
   2.40000010      -1.65336687E-08
   2.51999998      -1.76680039E-08
   2.64000010      -1.88691676E-08
   2.75999999      -2.01367367E-08
   2.88000011      -2.14766516E-08
   3.00000000      -2.29024764E-08
   3.11999989      -2.44340512E-08
   3.24000001      -2.60939057E-08
   3.35999990      -2.79024679E-08
   3.48000002      -2.98736431E-08
   3.59999990      -3.20122915E-08
   3.72000003      -3.43145530E-08
   3.83999991      -3.67710626E-08
   3.96000004      -3.93720754E-08
   4.07999992      -4.21129123E-08
   4.19999981      -4.49979183E-08
   4.32000017      -4.80415956E-08
   4.44000006      -5.12665537E-08
   4.55999994      -5.46989689E-08
   4.67999983      -5.83631277E-08
   4.80000019      -6.22769107E-08
   4.92000008      -6.64498359E-08
   5.03999996      -7.08842194E-08
   5.15999985      -7.55790737E-08
   5.28000021      -8.05352371E-08
   5.40000010      -8.57598437E-08
   5.51999998      -9.12685465E-08
   5.63999987      -9.70847012E-08
   5.76000023      -1.03235848E-07
   5.88000011      -1.09748932E-07
   6.00000000      -1.16645992E-07
   6.11999989      -1.23942016E-07
   6.23999977      -1.31645592E-07
   6.36000013      -1.39761966E-07
   6.48000002      -1.48297318E-07
   6.59999990      -1.57262107E-07
   6.71999979      -1.66672621E-07
   6.84000015      -1.76549747E-07
   6.96000004      -1.86916097E-07
   7.07999992      -1.97792716E-07
   7.19999981      -2.09197353E-07
   7.32000017      -2.21145427E-07
   7.44000006      -2.33653978E-07
   7.55999994      -2.46747106E-07
   7.67999983      -2.60460979E-07
   7.80000019      -2.74846315E-07
   7.92000008      -2.89966465E-07
   8.03999996      -3.05891689E-07
   8.15999985      -3.22690539E-07
   8.27999973      -3.40421224E-07
   8.39999962      -3.59125181E-07
   8.52000046      -3.78825121E-07
   8.64000034      -3.99527210E-07
   8.76000023      -4.21227213E-07
   8.88000011      -4.43917685E-07
   9.00000000      -4.67593992E-07
   9.11999989      -4.92258323E-07
   9.23999977      -5.17920967E-07
   9.35999966      -5.44599686E-07
   9.47999954      -5.72319436E-07
   9.60000038      -6.01113015E-07
   9.72000027      -6.31023170E-07
   9.84000015      -6.62105094E-07
   9.96000004      -6.94428138E-07
   10.0799999      -7.28073871E-07
   10.1999998      -7.63130970E-07
   10.3199997      -7.99686688E-07
   10.4399996      -8.37818106E-07
   10.5600004      -8.77585308E-07
   10.6800003      -9.19029389E-07
   10.8000002      -9.62176273E-07
   10.9200001      -1.00704483E-06
   11.0400000      -1.05365541E-06
   11.1599998      -1.10203700E-06
   11.2799997      -1.15222861E-06
   11.3999996      -1.20427387E-06
   11.5200005      -1.25821214E-06
   11.6400003      -1.31406989E-06
   11.7600002      -1.37185441E-06
   11.8800001      -1.43155603E-06
   12.0000000      -1.49315736E-06
   12.1199999      -1.55664770E-06
   12.2399998      -1.62203798E-06
   12.3599997      -1.68936970E-06
   12.4799995      -1.75871628E-06
   12.6000004      -1.83017301E-06
   12.7200003      -1.90384060E-06
   12.8400002      -1.97980648E-06
   12.9600000      -2.05813058E-06
   13.0799999      -2.13884073E-06
   13.1999998      -2.22193717E-06
   13.3199997      -2.30740670E-06
   13.4399996      -2.39523865E-06
   13.5600004      -2.48543961E-06
   13.6800003      -2.57803754E-06
   13.8000002      -2.67307792E-06
   13.9200001      -2.77061008E-06
   14.0400000      -2.87067087E-06
   14.1599998      -2.97326983E-06
   14.2799997      -3.07838354E-06
   14.3999996      -3.18595971E-06
   14.5200005      -3.29592990E-06
   14.6400003      -3.40822703E-06
   14.7600002      -3.52280040E-06
   14.8800001      -3.63962454E-06
   15.0000000      -3.75869695E-06
   15.1199999      -3.88002491E-06
   15.2399998      -4.00360932E-06
   15.3599997      -4.12942654E-06
   15.4799995      -4.25742064E-06
   15.6000004      -4.38749794E-06
   15.7200003      -4.51954338E-06
   15.8400002      -4.65343237E-06
   15.9600000      -4.78905440E-06
   16.0799999      -4.92632216E-06
   16.2000008      -5.06517836E-06
   16.3199997      -5.20558933E-06
   16.4400005      -5.34752871E-06
   16.5599995      -5.49096376E-06
   16.6800003      -5.63583444E-06
   16.7999992      -5.78204936E-06
   16.9200001      -5.92948436E-06
   17.0400009      -6.07798756E-06
   17.1599998      -6.22739253E-06
   17.2800007      -6.37752646E-06
   17.3999996      -6.52821336E-06
   17.5200005      -6.67927452E-06
   17.6399994      -6.83052122E-06
   17.7600002      -6.98174654E-06
   17.8799992      -7.13272311E-06
   18.0000000      -7.28320401E-06
   18.1200008      -7.43292867E-06
   18.2399998      -7.58163515E-06
   18.3600006      -7.72906878E-06
   18.4799995      -7.87498811E-06
   18.6000004      -8.01915940E-06
   18.7199993      -8.16135434E-06
   18.8400002      -8.30132922E-06
   18.9599991      -8.43882208E-06
   19.0799999      -8.57354098E-06
   19.2000008      -8.70516942E-06
   19.3199997      -8.83337907E-06
   19.4400005      -8.95784251E-06
   19.5599995      -9.07824142E-06
   19.6800003      -9.19426748E-06
   19.7999992      -9.30561964E-06
   19.9200001      -9.41198232E-06
   20.0400009      -9.51300899E-06
   20.1599998      -9.60830585E-06
   20.2800007      -9.69742723E-06
   20.3999996      -9.77988748E-06
   20.5200005      -9.85518454E-06
   20.6399994      -9.92282639E-06
   20.7600002      -9.98235282E-06
   20.8799992      -1.00333436E-05
   21.0000000      -1.00754114E-05
   21.1200008      -1.01081750E-05
   21.2399998      -1.01312262E-05
   21.3600006      -1.01441046E-05
   21.4799995      -1.01462756E-05
   21.6000004      -1.01371443E-05
   21.7199993      -1.01160704E-05
   21.8400002      -1.00824154E-05
   21.9599991      -1.00355737E-05
   22.0799999      -9.97499592E-06
   22.2000008      -9.90019726E-06
   22.3199997      -9.81073754E-06
   22.4400005      -9.70619112E-06
   22.5599995      -9.58611417E-06
   22.6800003      -9.45001193E-06
   22.7999992      -9.29732960E-06
   22.9200001      -9.12745418E-06
   23.0400009      -8.93973629E-06
   23.1599998      -8.73351564E-06
   23.2800007      -8.50814558E-06
   23.3999996      -8.26300766E-06
   23.5200005      -7.99750887E-06
   23.6399994      -7.71107261E-06
   23.7600002      -7.40311452E-06
   23.8799992      -7.07302524E-06
   24.0000000      -6.72016040E-06
   24.1200008      -6.34383696E-06
   24.2399998      -5.94334551E-06
   24.3600006      -5.51796848E-06
   24.4799995      -5.06699780E-06
   24.6000004      -4.58974500E-06
   24.7199993      -4.08554433E-06
   24.8400002      -3.55374732E-06
   24.9599991      -2.99370913E-06
   25.0799999      -2.40477698E-06
   25.2000008      -1.78628397E-06
   25.3199997      -1.13754982E-06
   25.4400005      -4.57891446E-07
   25.5599995       2.53364021E-07
   25.6800003       9.96867470E-07
   25.7999992       1.77324125E-06
   25.9200001       2.58308160E-06
   26.0400009       3.42696467E-06
   26.1599998       4.30545651E-06
   26.2800007       5.21912580E-06
   26.3999996       6.16854777E-06
   26.5200005       7.15431088E-06
   26.6399994       8.17701857E-06
   26.7600002       9.23729021E-06
   26.8799992       1.03357634E-05
   27.0000000       1.14730929E-05
   27.1200008       1.26499417E-05
   27.2399998       1.38669702E-05
   27.3600006       1.51248278E-05
   27.4799995       1.64241228E-05
   27.6000004       1.77654201E-05
   27.7199993       1.91492290E-05
   27.8400002       2.05760116E-05
   27.9599991       2.20462043E-05
   28.0799999       2.35602238E-05
   28.2000008       2.51184974E-05
   28.3199997       2.67214782E-05
   28.4400005       2.83696354E-05
   28.5599995       3.00634601E-05
   28.6800003       3.18034326E-05
   28.7999992       3.35900222E-05
   28.9200001       3.54236545E-05
   29.0400009       3.73047078E-05
   29.1599998       3.92334987E-05
   29.2800007       4.12102927E-05
   29.3999996       4.32353008E-05
   29.5200005       4.53086941E-05
   29.6399994       4.74306107E-05
   29.7600002       4.96011708E-05
   29.8799992       5.18205125E-05
   30.0000000       5.40887668E-05
   30.1200008       5.64060829E-05
   30.2399998       5.87726172E-05
   30.3600006       6.11885116E-05
   30.4799995       6.36538607E-05
   30.6000004       6.61687009E-05
   30.7199993       6.87330248E-05
   30.8400002       7.13467525E-05
   30.9599991       7.40097166E-05
   31.0799999       7.67217425E-05
   31.2000008       7.94825828E-05
   31.3199997       8.22920047E-05
   31.4400005       8.51497462E-05
   31.5599995       8.80554871E-05
   31.6800003       9.10089148E-05
   31.7999992       9.40096070E-05
   31.9200001       9.70570836E-05
   32.0400009       1.00150784E-04
   32.1599998       1.03290047E-04
   32.2799988       1.06474145E-04
   32.4000015       1.09702291E-04
   32.5200005       1.12973663E-04
   32.6399994       1.16287454E-04
   32.7599983       1.19642835E-04
   32.8800011       1.23038990E-04
   33.0000000       1.26475090E-04
   33.1199989       1.29950262E-04
   33.2400017       1.33463531E-04
   33.3600006       1.37013849E-04
   33.4799995       1.40599994E-04
   33.5999985       1.44220656E-04
   33.7200012       1.47874438E-04
   33.8400002       1.51559841E-04
   33.9599991       1.55275353E-04
   34.0800018       1.59019401E-04
   34.2000008       1.62790413E-04
   34.3199997       1.66586804E-04
   34.4399986       1.70406958E-04
   34.5600014       1.74249173E-04
   34.6800003       1.78111688E-04
   34.7999992       1.81992684E-04
   34.9199982       1.85890240E-04
   35.0400009       1.89802333E-04
   35.1599998       1.93726839E-04
   35.2799988       1.97661560E-04
   35.4000015       2.01604169E-04
   35.5200005       2.05552336E-04
   35.6399994       2.09503603E-04
   35.7599983       2.13455511E-04
   35.8800011       2.17405512E-04
   36.0000000       2.21351074E-04
   36.1199989       2.25289565E-04
   36.2400017       2.29218364E-04
   36.3600006       2.33134764E-04
   36.4799995       2.37036060E-04
   36.5999985       2.40919428E-04
   36.7200012       2.44782044E-04
   36.8400002       2.48620956E-04
   36.9599991       2.52433092E-04
   37.0800018       2.56215280E-04
   37.2000008       2.59964290E-04
   37.3199997       2.63676746E-04
   37.4399986       2.67349329E-04
   37.5600014       2.70978606E-04
   37.6800003       2.74561258E-04
   37.7999992       2.78093881E-04
   37.9199982       2.81573302E-04
   38.0400009       2.84996175E-04
   38.1599998       2.88359122E-04
   38.2799988       2.91658653E-04
   38.4000015       2.94891215E-04
   38.5200005       2.98053055E-04
   38.6399994       3.01140390E-04
   38.7599983       3.04149347E-04
   38.8800011       3.07075999E-04
   39.0000000       3.09916533E-04
   39.1199989       3.12667136E-04
   39.2400017       3.15324112E-04
   39.3600006       3.17883765E-04
   39.4799995       3.20342515E-04
   39.5999985       3.22696753E-04
   39.7200012       3.24942841E-04
   39.8400002       3.27077170E-04
   39.9599991       3.29096074E-04
   40.0800018       3.30995827E-04
   40.2000008       3.32772615E-04
   40.3199997       3.34422541E-04
   40.4399986       3.35941848E-04
   40.5600014       3.37326666E-04
   40.6800003       3.38573329E-04
   40.7999992       3.39678139E-04
   40.9199982       3.40637605E-04
   41.0400009       3.41448380E-04
   41.1599998       3.42107058E-04
   41.2799988       3.42610438E-04
   41.4000015       3.42955260E-04
   41.5200005       3.43138352E-04
   41.6399994       3.43156455E-04
   41.7599983       3.43006366E-04
   41.8800011       3.42684943E-04
   42.0000000       3.42189072E-04
   42.1199989       3.41515784E-04
   42.2400017       3.40662285E-04
   42.3600006       3.39625956E-04
   42.4799995       3.38404236E-04
   42.5999985       3.36994824E-04
   42.7200012       3.35395482E-04
   42.8400002       3.33603937E-04
   42.9599991       3.31618096E-04
   43.0800018       3.29435890E-04
   43.2000008       3.27055401E-04
   43.3199997       3.24474851E-04
   43.4399986       3.21692554E-04
   43.5600014       3.18707142E-04
   43.6800003       3.15517216E-04
   43.7999992       3.12121731E-04
   43.9199982       3.08519637E-04
   44.0400009       3.04710091E-04
   44.1599998       3.00692482E-04
   44.2799988       2.96466227E-04
   44.4000015       2.92031007E-04
   44.5200005       2.87386647E-04
   44.6399994       2.82533205E-04
   44.7599983       2.77470943E-04
   44.8800011       2.72200356E-04
   45.0000000       2.66722054E-04
   45.1199989       2.61036941E-04
   45.2400017       2.55146006E-04
   45.3600006       2.49050529E-04
   45.4799995       2.42751848E-04
   45.5999985       2.36251450E-04
   45.7200012       2.29551064E-04
   45.8400002       2.22652583E-04
   45.9599991       2.15558190E-04
   46.0800018       2.08270329E-04
   46.2000008       2.00791663E-04
   46.3199997       1.93125146E-04
   46.4399986       1.85273995E-04
   46.5600014       1.77241527E-04
   46.6800003       1.69031337E-04
   46.7999992       1.60647134E-04
   46.9199982       1.52092864E-04
   47.0400009       1.43372628E-04
   47.1599998       1.34490794E-04
   47.2799988       1.25451945E-04
   47.4000015       1.16260861E-04
   47.5200005       1.06922605E-04
   47.6399994       9.74424183E-05
   47.7599983       8.78257924E-05
   47.8800011       7.80783885E-05
   48.0000000       6.82061000E-05
   48.1199989       5.82150242E-05
   48.2400017       4.81114148E-05
   48.3600006       3.79017183E-05
   48.4799995       2.75925468E-05
   48.5999985       1.71906850E-05
   48.7200012       6.70310556E-06
   48.8400002      -3.86304237E-06
   48.9599991      -1.45004233E-05
   49.0800018      -2.52015197E-05
   49.2000008      -3.59586302E-05
   49.3199997      -4.67639074E-05
   49.4399986      -5.76093880E-05
   49.5600014      -6.84869665E-05
   49.6800003      -7.93884537E-05
   49.7999992      -9.03055625E-05
   49.9199982      -1.01229925E-04
   50.0400009      -1.12153088E-04
   50.1599998      -1.23066508E-04
   50.2799988      -1.33961570E-04
   50.4000015      -1.44829522E-04
   50.5200005      -1.55661546E-04
   50.6399994      -1.66448706E-04
   50.7599983      -1.77182024E-04
   50.8800011      -1.87852420E-04
   51.0000000      -1.98450856E-04
   51.1199989      -2.08968297E-04
   51.2400017      -2.19395763E-04
   51.3600006      -2.29724334E-04
   51.4799995      -2.39945133E-04
   51.5999985      -2.50049314E-04
   51.7200012      -2.60028057E-04
   51.8400002      -2.69872573E-04
   51.9599991      -2.79574160E-04
   52.0800018      -2.89124087E-04
   52.2000008      -2.98513769E-04
   52.3199997      -3.07734677E-04
   52.4399986      -3.16778402E-04
   52.5600014      -3.25636676E-04
   52.6800003      -3.34301469E-04
   52.7999992      -3.42764775E-04
   52.9199982      -3.51018913E-04
   53.0400009      -3.59056314E-04
   53.1599998      -3.66869586E-04
   53.2799988      -3.74451629E-04
   53.4000015      -3.81795515E-04
   53.5200005      -3.88894608E-04
   53.6399994      -3.95742478E-04
   53.7599983      -4.02332924E-04
   53.8800011      -4.08660038E-04
   54.0000000      -4.14718088E-04
   54.1199989      -4.20501601E-04
   54.2400017      -4.26005339E-04
   54.3600006      -4.31224267E-04
   54.4799995      -4.36153903E-04
   54.5999985      -4.40789881E-04
   54.7200012      -4.45128360E-04
   54.8400002      -4.49165847E-04
   54.9599991      -4.52899258E-04
   55.0800018      -4.56325710E-04
   55.2000008      -4.59442759E-04
   55.3199997      -4.62248136E-04
   55.4399986      -4.64739976E-04
   55.5600014      -4.66916827E-04
   55.6800003      -4.68777493E-04
   55.7999992      -4.70321276E-04
   55.9199982      -4.71547712E-04
   56.0400009      -4.72456886E-04
   56.1599998      -4.73049062E-04
   56.2799988      -4.73324995E-04
   56.4000015      -4.73285851E-04
   56.5200005      -4.72933141E-04
   56.6399994      -4.72268846E-04
   56.7599983      -4.71295352E-04
   56.8800011      -4.70015337E-04
   57.0000000      -4.68432030E-04
   57.1199989      -4.66548867E-04
   57.2400017      -4.64369630E-04
   57.3600006      -4.61898337E-04
   57.4799995      -4.59139410E-04
   57.5999985      -4.56097565E-04
   57.7200012      -4.52777836E-04
   57.8400002      -4.49185638E-04
   57.9599991      -4.45326732E-04
   58.0800018      -4.41207230E-04
   58.2000008      -4.36833594E-04
   58.3199997      -4.32212662E-04
   58.4399986      -4.27351508E-04
   58.5600014      -4.22257552E-04
   58.6800003      -4.16938419E-04
   58.7999992      -4.11401968E-04
   58.9199982      -4.05656145E-04
   59.0400009      -3.99709126E-04
   59.1599998      -3.93569295E-04
   59.2799988      -3.87245178E-04
   59.4000015      -3.80745565E-04
   59.5200005      -3.74079478E-04
   59.6399994      -3.67256027E-04
   59.7599983      -3.60284612E-04
   59.8800011      -3.53174575E-04
   60.0000000      -3.45935463E-04
   60.1199989      -3.38576792E-04
   60.2400017      -3.31108313E-04
   60.3600006      -3.23539745E-04
   60.4799995      -3.15881043E-04
   60.5999985      -3.08142218E-04
   60.7200012      -3.00333253E-04
   60.8400002      -2.92464218E-04
   60.9599991      -2.84544920E-04
   61.0800018      -2.76585168E-04
   61.2000008      -2.68594595E-04
   61.3199997      -2.60582718E-04
   61.4399986      -2.52558966E-04
   61.5600014      -2.44532886E-04
   61.6800003      -2.36513893E-04
   61.7999992      -2.28511417E-04
   61.9199982      -2.20534726E-04
   62.0400009      -2.12592946E-04
   62.1599998      -2.04694908E-04
   62.2799988      -1.96849287E-04
   62.4000015      -1.89064536E-04
   62.5200005      -1.81348893E-04
   62.6399994      -1.73710432E-04
   62.7599983      -1.66157115E-04
   62.8800011      -1.58696668E-04
   63.0000000      -1.51336557E-04
   63.1199989      -1.44083926E-04
   63.2400017      -1.36945600E-04
   63.3600006      -1.29928056E-04
   63.4799995      -1.23037433E-04
   63.5999985      -1.16279611E-04
   63.7200012      -1.09660228E-04
   63.8400002      -1.03184721E-04
   63.9599991      -9.68582972E-05
   64.0800018      -9.06858768E-05
   64.1999969      -8.46720432E-05
   64.3199997      -7.88210164E-05
   64.4400024      -7.31365872E-05
   64.5599976      -6.76221825E-05
   64.6800003      -6.22808657E-05
   64.8000031      -5.71153978E-05
   64.9199982      -5.21282818E-05
   65.0400009      -4.73217806E-05
   65.1600037      -4.26979059E-05
   65.2799988      -3.82583676E-05
   65.4000015      -3.40045335E-05
   65.5199966      -2.99373678E-05
   65.6399994      -2.60574507E-05
   65.7600021      -2.23649513E-05
   65.8799973      -1.88597078E-05
   66.0000000      -1.55412563E-05
   66.1200027      -1.24088810E-05
   66.2399979      -9.46166529E-06
   66.3600006      -6.69848123E-06
   66.4800034      -4.11798874E-06
   66.5999985      -1.71860074E-06
   66.7200012       5.01547845E-07
   66.8399963       2.54461906E-06
   66.9599991       4.41307657E-06
   67.0800018       6.10966526E-06
   67.1999969       7.63738080E-06
   67.3199997       8.99943007E-06
   67.4400024       1.01991936E-05
   67.5599976       1.12402149E-05
   67.6800003       1.21261837E-05
   67.8000031       1.28609618E-05
   67.9199982       1.34485927E-05
   68.0400009       1.38933174E-05
   68.1600037       1.41995642E-05
   68.2799988       1.43719235E-05
   68.4000015       1.44150918E-05
   68.5199966       1.43338284E-05
   68.6399994       1.41329137E-05
   68.7600021       1.38171399E-05
   68.8799973       1.33913300E-05
   69.0000000       1.28603779E-05
   69.1200027       1.22292859E-05
   69.2399979       1.15031753E-05
   69.3600006       1.06872694E-05
   69.4800034       9.78683420E-06
   69.5999985       8.80712287E-06
   69.7200012       7.75331591E-06
   69.8399963       6.63051424E-06
   69.9599991       5.44375371E-06
   70.0800018       4.19806065E-06
   70.1999969       2.89849777E-06
   70.3199997       1.55018449E-06
   70.4400024       1.58267056E-07
   70.5599976      -1.27214946E-06
   70.6800003      -2.73608362E-06
   70.8000031      -4.22874427E-06
   70.9199982      -5.74555133E-06
   71.0400009      -7.28211489E-06
   71.1600037      -8.83417488E-06
   71.2799988      -1.03975444E-05
   71.4000015      -1.19680717E-05
   71.5199966      -1.35416458E-05
   71.6399994      -1.51142294E-05
   71.7600021      -1.66818991E-05
   71.8799973      -1.82408858E-05
   72.0000000      -1.97875797E-05
   72.1200027      -2.13185103E-05
   72.2399979      -2.28303325E-05
   72.3600006      -2.43197992E-05
   72.4800034      -2.57837783E-05
   72.5999985      -2.72192774E-05
   72.7200012      -2.86234717E-05