  -30.0000000       0.00000000    
  -29.8799992       0.00000000    
  -29.7600002       0.00000000    
  -29.6399994       0.00000000    
  -29.5200005       0.00000000    
  -29.3999996       0.00000000    
  -29.2800007      -5.04467447E-44
  -29.1599998      -5.46506401E-43
  -29.0400009      -3.36872151E-42
  -28.9200001      -1.00403035E-41
  -28.7999992      -5.99895873E-42
  -28.6800003       8.28013250E-41
  -28.5599995       4.25372557E-40
  -28.4400005       1.17945050E-39
  -28.3199997       2.12965837E-39
  -28.2000008       2.35742543E-39
  -28.0799999       8.35235542E-40
  -27.9599991      -1.49988962E-39
  -27.8400002      -4.60581582E-40
  -27.7199993       5.32749714E-39
  -27.6000004      -4.93428018E-39
  -27.4799995      -9.76445621E-38
  -27.3600006      -3.72685057E-37
  -27.2399998      -8.54974837E-37
  -27.1200008      -1.26735307E-36
  -27.0000000      -8.00509393E-37
  -26.8799992       1.80689926E-36
  -26.7600002       7.47955849E-36
  -26.6399994       1.51872421E-35
  -26.5200005       2.01438793E-35
  -26.3999996       1.34629345E-35
  -26.2800007      -1.46498982E-35
  -26.1599998      -6.71779869E-35
  -26.0400009      -1.30127110E-34
  -25.9200001      -1.66073337E-34
  -25.7999992      -1.20083188E-34
  -25.6800003       5.57136510E-35
  -25.5599995       3.61658194E-34
  -25.4400005       7.10605758E-34
  -25.3199997       9.16387570E-34
  -25.2000008       7.38613059E-34
  -25.0799999      -6.73076772E-36
  -24.9599991      -1.29715251E-33
  -24.8400002      -2.78050515E-33
  -24.7199993      -3.76798359E-33
  -24.6000004      -3.41491468E-33
  -24.4799995      -1.09281430E-33
  -24.3600006       3.14943038E-33
  -24.2399998       8.24012944E-33
  -24.1200008       1.21017988E-32
  -24.0000000       1.22056156E-32
  -23.8799992       6.63675515E-33
  -23.7600002      -4.64108349E-33
  -23.6399994      -1.88886484E-32
  -23.5200005      -3.07008650E-32
  -23.3999996      -3.35275997E-32
  -23.2800007      -2.24499731E-32
  -23.1599998       2.67512539E-33
  -23.0400009       3.51779703E-32
  -22.9200001       6.21861432E-32
  -22.7999992       6.86956959E-32
  -22.6800003       4.44464700E-32
  -22.5599995      -8.80951466E-33
  -22.4400005      -7.32884640E-32
  -22.3199997      -1.17891904E-31
  -22.2000008      -1.09121611E-31
  -22.0799999      -2.80413149E-32
  -21.9599991       1.12858237E-31
  -21.8400002       2.61546341E-31
  -21.7199993       3.34966566E-31
  -21.6000004       2.47113363E-31
  -21.4799995      -4.86560534E-32
  -21.3600006      -5.17283483E-31
  -21.2399998      -1.01945810E-30
  -21.1200008      -1.32731246E-30
  -21.0000000      -1.18679461E-30
  -20.8799992      -4.17991027E-31
  -20.7600002       9.74545002E-31
  -20.6399994       2.72332626E-30
  -20.5200005       4.29461877E-30
  -20.3999996       4.98839253E-30
  -20.2800007       4.13910707E-30
  -20.1599998       1.37642207E-30
  -20.0400009      -3.12950808E-30
  -19.9200001      -8.53048915E-30
  -19.7999992      -1.33521684E-29
  -19.6800003      -1.57755028E-29
  -19.5599995      -1.41221085E-29
  -19.4400005      -7.44317381E-30
  -19.3199997       3.94955344E-30
  -19.2000008       1.81972303E-29
  -19.0799999       3.20099096E-29
  -18.9599991       4.12565671E-29
  -18.8400002       4.19683397E-29
  -18.7199993       3.15461096E-29
  -18.6000004       9.84471290E-30
  -18.4799995      -2.02350643E-29
  -18.3600006      -5.29416656E-29
  -18.2399998      -8.07532134E-29
  -18.1200008      -9.61572585E-29
  -18.0000000      -9.36558186E-29
  -17.8799992      -7.13438058E-29
  -17.7600002      -3.14505564E-29
  -17.6399994       2.04510995E-29
  -17.5200005       7.73266289E-29
  -17.3999996       1.32825923E-28
  -17.2800007       1.82504227E-28
  -17.1599998       2.23062988E-28
  -17.0400009       2.49336717E-28
  -16.9200001       2.50073794E-28
  -16.7999992       2.04989435E-28
  -16.6800003       8.64136720E-29
  -16.5599995      -1.31634772E-28
  -16.4400005      -4.56421852E-28
  -16.3199997      -8.54955258E-28
  -16.2000008      -1.23597344E-27
  -16.0799999      -1.44694760E-27
  -15.9600000      -1.29760917E-27
  -15.8400002      -6.16286219E-28
  -15.7200003       6.65687237E-28
  -15.6000004       2.42135905E-27
  -15.4799995       4.26222240E-27
  -15.3599997       5.54231793E-27
  -15.2399998       5.47070493E-27
  -15.1199999       3.34690764E-27
  -15.0000000      -1.10869479E-27
  -14.8800001      -7.41187899E-27
  -14.7600002      -1.40914254E-26
  -14.6400003      -1.87415555E-26
  -14.5200005      -1.84783888E-26
  -14.3999996      -1.08347873E-26
  -14.2799997       5.03046661E-27
  -14.1599998       2.71265908E-26
  -14.0400000       4.99139658E-26
  -13.9200001       6.46259074E-26
  -13.8000002       6.10544321E-26
  -13.6800003       3.08656682E-26
  -13.5600004      -2.80660625E-26
  -13.4399996      -1.07492443E-25
  -13.3199997      -1.86539929E-25
  -13.1999998      -2.33278964E-25
  -13.0799999      -2.11509583E-25
  -12.9600000      -9.28342175E-26
  -12.8400002       1.27951673E-25
  -12.7200003       4.18446879E-25
  -12.6000004       7.01358580E-25
  -12.4799995       8.60915559E-25
  -12.3599997       7.67651985E-25
  -12.2399998       3.21557849E-25
  -12.1199999      -4.93477264E-25
  -12.0000000      -1.55898419E-24
  -11.8800001      -2.59638441E-24
  -11.7600002      -3.18943879E-24
  -11.6400003      -2.87103856E-24
  -11.5200005      -1.27477339E-24
  -11.3999996       1.67251311E-24
  -11.2799997       5.56860542E-24
  -11.1599998       9.43815038E-24
  -11.0400000       1.17995250E-23
  -10.9200001       1.09563763E-23
  -10.8000002       5.52104894E-24
  -10.6800003      -4.90516314E-24
  -10.5600004      -1.90664226E-23
  -10.4399996      -3.36549677E-23
  -10.3199997      -4.34662359E-23
  -10.1999998      -4.23329015E-23
  -10.0799999      -2.48945348E-23
  -9.96000004       1.10161491E-23
  -9.84000015       6.19246660E-23
  -9.72000027       1.17060862E-22
  -9.60000038       1.58502792E-22
  -9.47999954       1.63979507E-22
  -9.35999966       1.12673710E-22
  -9.23999977      -6.53674127E-24
  -9.11999989      -1.86109491E-22
  -9.00000000      -3.92965443E-22
  -8.88000011      -5.67206743E-22
  -8.76000023      -6.29687505E-22
  -8.64000034      -5.00209405E-22
  -8.52000046      -1.25275908E-22
  -8.39999962       4.89528253E-22
  -8.27999973       1.25151043E-21
  -8.15999985       1.96910082E-21
  -8.03999996       2.36849375E-21
  -7.92000008       2.14705573E-21
  -7.80000019       1.06334522E-21
  -7.67999983      -9.48983362E-22
  -7.55999994      -3.67049684E-21
  -7.44000006      -6.52774387E-21
  -7.32000017      -8.61145182E-21
  -7.19999981      -8.81741575E-21
  -7.07999992      -6.12274525E-21
  -6.96000004       2.90154369E-23
  -6.84000015       9.30947432E-21
  -6.71999979       2.01767414E-20
  -6.59999990       2.97891358E-20
  -6.48000002       3.43071867E-20
  -6.36000013       2.96722126E-20
  -6.23999977       1.28360902E-20
  -6.11999989      -1.67425120E-20
  -6.00000000      -5.56943227E-20
  -5.88000011      -9.59275023E-20
  -5.76000023      -1.24952572E-19
  -5.63999987      -1.27781581E-19
  -5.51999998      -9.05417358E-20
  -5.40000010      -5.46362407E-21
  -5.28000021       1.23691018E-19
  -5.15999985       2.77272570E-19
  -5.03999996       4.18335790E-19
  -4.92000008       4.96007429E-19
  -4.80000019       4.54812749E-19
  -4.67999983       2.49839590E-19
  -4.55999994      -1.34243310E-19
  -4.44000006      -6.64394777E-19
  -4.32000017      -1.24652158E-18
  -4.19999981      -1.72561394E-18
  -4.07999992      -1.90455813E-18
  -3.96000004      -1.58449259E-18
  -3.83999991      -6.24378415E-19
  -3.72000003       9.89370878E-19
  -3.59999990       3.07947803E-18
  -3.48000002       5.24234233E-18
  -3.35999990       6.86370939E-18
  -3.24000001       7.20388369E-18
  -3.11999989       5.55869756E-18
  -3.00000000       1.48300094E-18
  -2.88000011      -4.96051652E-18
  -2.75999999      -1.29881468E-17
  -2.64000010      -2.09949871E-17
  -2.51999998      -2.66465646E-17
  -2.40000010      -2.72205635E-17
  -2.27999997      -2.02111574E-17
  -2.16000009      -4.13961255E-18
  -2.03999996       2.05675945E-17
  -1.91999996       5.08503260E-17
  -1.79999995       8.07043397E-17
  -1.67999995       1.01555525E-16
  -1.55999994       1.03509577E-16
  -1.44000006       7.75077962E-17
  -1.32000005       1.81851191E-17
  -1.20000005      -7.30505698E-17
  -1.08000004      -1.85459055E-16
 -0.959999979      -2.97838092E-16
 -0.839999974      -3.79727014E-16
 -0.720000029      -3.95597315E-16
 -0.600000024      -3.12161499E-16
 -0.479999989      -1.08161409E-16
 -0.360000014       2.14912257E-16
 -0.239999995       6.23588885E-16
 -0.119999997       1.04768574E-15
  -1.11022302E-15   1.38313302E-15
  0.119999997       1.50469739E-15
  0.239999995       1.28935048E-15
  0.360000014       6.48616962E-16
  0.479999989      -4.34689897E-16
  0.600000024      -1.87284215E-15
  0.720000029      -3.45233498E-15
  0.839999974      -4.83601899E-15
  0.959999979      -5.59673208E-15
   1.08000004      -5.28645671E-15
   1.20000005      -3.53789018E-15
   1.32000005      -1.86258058E-16
   1.44000006       4.61030419E-15
   1.55999994       1.02812486E-14
   1.67999995       1.58181082E-14
   1.79999995       1.98432020E-14
   1.91999996       2.07917230E-14
   2.03999996       1.72069390E-14
   2.16000009       8.12170511E-15
   2.27999997      -6.52999341E-15
   2.40000010      -2.55551433E-14
   2.51999998      -4.62986345E-14
   2.64000010      -6.46973049E-14
   2.75999999      -7.56714976E-14
   2.88000011      -7.38872600E-14
   3.00000000      -5.48513668E-14
   3.11999989      -1.62145637E-14
   3.24000001       4.09303837E-14
   3.35999990       1.11041127E-13
   3.48000002       1.83728046E-13
   3.59999990       2.44261940E-13
   3.72000003       2.75187560E-13
   3.83999991       2.59074283E-13
   3.96000004       1.82205339E-13
   4.07999992       3.87428974E-14
   4.19999981      -1.65341346E-13
   4.32000017      -4.09463289E-13
   4.44000006      -6.57695957E-13
   4.55999994      -8.60931281E-13
   4.67999983      -9.62423934E-13
   4.80000019      -9.06674312E-13
   4.92000008      -6.50922838E-13
   5.03999996      -1.77785182E-13
   5.15999985       4.93121223E-13
   5.28000021       1.29715433E-12
   5.40000010       2.12289691E-12
   5.51999998       2.81891697E-12
   5.63999987       3.21029011E-12
   5.76000023       3.12462079E-12
   5.88000011       2.42540796E-12
   6.00000000       1.04858873E-12
   6.11999989      -9.63692017E-13
   6.23999977      -3.43918860E-12
   6.36000013      -6.06878783E-12
   6.48000002      -8.42293336E-12
   6.59999990      -9.99470819E-12
   6.71999979      -1.02690747E-11
   6.84000015      -8.81289833E-12
   6.96000004      -5.37517470E-12
   7.07999992       1.77582592E-14
   7.19999981       6.99027685E-12
   7.32000017       1.47876867E-11
   7.44000006       2.23048073E-11
   7.55999994       2.81830080E-11
   7.67999983       3.09763222E-11
   7.80000019       2.93753702E-11
   7.92000008       2.24650715E-11
   8.03999996       9.98039932E-12
   8.15999985      -7.48390065E-12
   8.27999973      -2.83563884E-11
   8.39999962      -5.01069464E-11
   8.52000046      -6.94290320E-11
   8.64000034      -8.25946672E-11
   8.76000023      -8.59636182E-11
   8.88000011      -7.65984082E-11
   9.00000000      -5.29080391E-11
   9.11999989      -1.52212271E-11
   9.23999977       3.38209773E-11
   9.35999966       8.91578825E-11
   9.47999954       1.43568810E-10
   9.60000038       1.88339427E-10
   9.72000027       2.14317286E-10
   9.84000015       2.13272039E-10
   9.96000004       1.79409029E-10
   10.0799999       1.10826806E-10
   10.1999998       1.06734456E-11
   10.3199997      -1.12248141E-10
   10.4399996      -2.43641857E-10
   10.5600004      -3.64787395E-10
   10.6800003      -4.54544430E-10
   10.8000002      -4.92177188E-10
   10.9200001      -4.60733812E-10
   11.0400000      -3.50569462E-10
   11.1599998      -1.62493297E-10
   11.2799997       9.00338692E-11
   11.3999996       3.80201731E-10
   11.5200005       6.69089895E-10
   11.6400003       9.09082309E-10
   11.7600002       1.04941500E-09
   11.8800001       1.04348530E-09
   12.0000000       8.57206084E-10
   12.1199999       4.77378137E-10
   12.2399998      -8.11731724E-11
   12.3599997      -7.71043673E-10
   12.4799995      -1.51154422E-09
   12.6000004      -2.19283014E-09
   12.7200003      -2.68538258E-09
   12.8400002      -2.85471313E-09
   12.9600000      -2.58040234E-09
   13.0799999      -1.77779191E-09
   13.1999998      -4.19914548E-10
   13.3199997       1.44331913E-09
   13.4399996       3.67193564E-09
   13.5600004       6.03189365E-09
   13.6800003       8.20294410E-09
   13.8000002       9.80006654E-09
   13.9200001       1.04088755E-08
   14.0400000       9.63368763E-09
   14.1599998       7.15510229E-09
   14.2799997       2.79215406E-09
   14.3999996      -3.43756845E-09
   14.5200005      -1.12675256E-08
   14.6400003      -2.01497432E-08
   14.7600002      -2.92480653E-08
   14.8800001      -3.74636819E-08
   15.0000000      -4.34971135E-08
   15.1199999      -4.59478784E-08
   15.2399998      -4.34489600E-08
   15.3599997      -3.48291920E-08
   15.4799995      -1.92921998E-08
   15.6000004       3.40323658E-09
   15.7200003       3.27797025E-08
   15.8400002       6.75146268E-08
   15.9600000       1.05371008E-07
   16.0799999       1.43203877E-07
   16.2000008       1.77057530E-07
   16.3199997       2.02362756E-07
   16.4400005       2.14235925E-07
   16.5599995       2.07873299E-07
   16.6800003       1.79024752E-07
   16.7999992       1.24521733E-07
   16.9200001       4.28256755E-08
   17.0400009      -6.54432668E-08
   17.1599998      -1.97041999E-07
   17.2800007      -3.45750834E-07
   17.3999996      -5.02174316E-07
   17.5200005      -6.53734730E-07
   17.6399994      -7.84886879E-07
   17.7600002      -8.77569732E-07
   17.8799992      -9.11897018E-07
   18.0000000      -8.67068877E-07
   18.1200008      -7.22472805E-07
   18.2399998      -4.58923751E-07
   18.3600006      -5.99781060E-08
   18.4799995       4.86752185E-07
   18.6000004       1.18836863E-06
   18.7199993       2.04562161E-06
   18.8400002       3.05209096E-06
   18.9599991       4.19368143E-06
   19.0799999       5.44849036E-06
   19.2000008       6.78707602E-06
   19.3199997       8.17314776E-06
   19.4400005       9.56465465E-06
   19.5599995       1.09152434E-05
   19.6800003       1.21760195E-05
   19.7999992       1.32975301E-05
   19.9200001       1.42318777E-05
   20.0400009       1.49348361E-05
   20.1599998       1.53678866E-05
   20.2800007       1.55000453E-05
   20.3999996       1.53093952E-05
   20.5200005       1.47842384E-05
   20.6399994       1.39237982E-05
   20.7600002       1.27384574E-05
   20.8799992       1.12495136E-05
   21.0000000       9.48845718E-06
   21.1200008       7.49582659E-06
   21.2399998       5.31971182E-06
   21.3600006       3.01396312E-06
   21.4799995       6.36217692E-07
   21.6000004      -1.75416994E-06
   21.7199993      -4.09819495E-06
   21.8400002      -6.33917762E-06
   21.9599991      -8.42456484E-06
   22.0799999      -1.03074981E-05
   22.2000008      -1.19481010E-05
   22.3199997      -1.33144449E-05
   22.4400005      -1.43831985E-05
   22.5599995      -1.51399518E-05
   22.6800003      -1.55792331E-05
   22.7999992      -1.57042650E-05
   22.9200001      -1.55264624E-05
   23.0400009      -1.50647375E-05
   23.1599998      -1.43446450E-05
   23.2800007      -1.33974108E-05
   23.3999996      -1.22588572E-05
   23.5200005      -1.09682842E-05
   23.6399994      -9.56731401E-06
   23.7600002      -8.09873018E-06
   23.8799992      -6.60531350E-06
   24.0000000      -5.12871475E-06
   24.1200008      -3.70836324E-06
   24.2399998      -2.38043276E-06
   24.3600006      -1.17689001E-06
   24.4799995      -1.24641602E-07
   24.6000004       7.55193525E-07
   24.7199993       1.44785793E-06
   24.8400002       1.94535028E-06
   24.9599991       2.24661585E-06
   25.0799999       2.35751190E-06
   25.2000008       2.29053285E-06
   25.3199997       2.06428876E-06
   25.4400005       1.70274359E-06
   25.5599995       1.23422910E-06
   25.6800003       6.90264756E-07
   25.7999992       1.04222103E-07
   25.9200001      -4.90109358E-07
   26.0400009      -1.05999629E-06
   26.1599998      -1.57520651E-06
   26.2800007      -2.00935597E-06
   26.3999996      -2.34108597E-06
   26.5200005      -2.55501209E-06
   26.6399994      -2.64238611E-06
   26.7600002      -2.60143383E-06
   26.8799992      -2.43734326E-06
   27.0000000      -2.16189619E-06
   27.1200008      -1.79275980E-06
   27.2399998      -1.35246376E-06
   27.3600006      -8.67121003E-07
   27.4799995      -3.64953394E-07
   27.6000004       1.25297234E-07
   27.7199993       5.75986178E-07
   27.8400002       9.62119998E-07
   27.9599991       1.26275859E-06
   28.0799999       1.46218406E-06
   28.2000008       1.55076611E-06
   28.3199997       1.52547113E-06
   28.4400005       1.38998325E-06
   28.5599995       1.15442890E-06
   28.6800003       8.34718264E-07
   28.7999992       4.51543627E-07
   28.9200001       2.90958422E-08
   29.0400009      -4.06423055E-07
   29.1599998      -8.28398356E-07
   29.2800007      -1.21141102E-06
   29.3999996      -1.53275676E-06
   29.5200005      -1.77377649E-06
   29.6399994      -1.92091898E-06
   29.7600002      -1.96646715E-06
   29.8799992      -1.90888727E-06
   30.0000000      -1.75278308E-06
   30.1200008      -1.50846586E-06
   30.2399998      -1.19117749E-06
   30.3600006      -8.20023274E-07
   30.4799995      -4.16694263E-07
   30.6000004      -4.06900691E-09
   30.7199993       3.95208815E-07
   30.8400002       7.60082401E-07
   30.9599991       1.07227606E-06
   31.0799999       1.31725972E-06
   31.2000008       1.48492950E-06
   31.3199997       1.56997521E-06
   31.4400005       1.57192551E-06
   31.5599995       1.49489108E-06
   31.6800003       1.34703885E-06
   31.7999992       1.13985459E-06
   31.9200001       8.87259318E-07
   32.0400009       6.04651177E-07
   32.1599998       3.07944276E-07
   32.2799988       1.26701458E-08
   32.4000015      -2.66802971E-07
   32.5200005      -5.17892715E-07
   32.6399994      -7.30243130E-07
   32.7599983      -8.95975290E-07
   32.8800011      -1.00975808E-06
   33.0000000      -1.06872085E-06
   33.1199989      -1.07224287E-06
   33.2400017      -1.02165779E-06
   33.3600006      -9.19916545E-07
   33.4799995      -7.71247130E-07
   33.5999985      -5.80845665E-07
   33.7200012      -3.54622330E-07
   33.8400002      -9.90152884E-08
   33.9599991       1.79124925E-07
   34.0800018       4.72590614E-07
   34.2000008       7.73830152E-07
   34.3199997       1.07494418E-06
   34.4399986       1.36769222E-06
   34.5600014       1.64353821E-06
   34.6800003       1.89375783E-06
   34.7999992       2.10962253E-06
   34.9199982       2.28266981E-06
   35.0400009       2.40505028E-06
   35.1599998       2.46993955E-06
   35.2799988       2.47198500E-06
   35.4000015       2.40775307E-06
   35.5200005       2.27613668E-06
   35.6399994       2.07867924E-06
   35.7599983       1.81977680E-06
   35.8800011       1.50672406E-06
   36.0000000       1.14958220E-06
   36.1199989       7.60860303E-07
   36.2400017       3.55013981E-07
   36.3600006      -5.22162011E-08
   36.4799995      -4.44591166E-07
   36.5999985      -8.06236130E-07
   36.7200012      -1.12252258E-06
   36.8400002      -1.38090877E-06
   36.9599991      -1.57167472E-06
   37.0800018      -1.68850033E-06
   37.2000008      -1.72883495E-06
   37.3199997      -1.69403324E-06
   37.4399986      -1.58924024E-06
   37.5600014      -1.42303065E-06
   37.6800003      -1.20682841E-06
   37.7999992      -9.54144639E-07
   37.9199982      -6.79691084E-07
   38.0400009      -3.98432888E-07
   38.1599998      -1.24650384E-07
   38.2799988       1.28923219E-07
   38.4000015       3.51825491E-07
   38.5200005       5.36401160E-07
   38.6399994       6.78116862E-07
   38.7599983       7.75638171E-07
   38.8800011       8.30673514E-07
   39.0000000       8.47604724E-07
   39.1199989       8.32944579E-07
   39.2400017       7.94669347E-07
   39.3600006       7.41485280E-07
   39.4799995       6.82088569E-07
   39.5999985       6.24476513E-07
   39.7200012       5.75358854E-07
   39.8400002       5.39707855E-07
   39.9599991       5.20471247E-07
   40.0800018       5.18456602E-07
   40.2000008       5.32382046E-07
   40.3199997       5.59074010E-07
   40.4399986       5.93783909E-07
   40.5600014       6.30589113E-07
   40.6800003       6.62841614E-07
   40.7999992       6.83629423E-07
   40.9199982       6.86221654E-07
   41.0400009       6.64473077E-07
   41.1599998       6.13174961E-07
   41.2799988       5.28344174E-07
   41.4000015       4.07450187E-07
   41.5200005       2.49583962E-07
   41.6399994       5.55744073E-08
   41.7599983      -1.71943370E-07
   41.8800011      -4.28505643E-07
   42.0000000      -7.07845686E-07
   42.1199989      -1.00197417E-06
   42.2400017      -1.30132389E-06
   42.3600006      -1.59497267E-06
   42.4799995      -1.87095259E-06
   42.5999985      -2.11665588E-06
   42.7200012      -2.31933427E-06
   42.8400002      -2.46668469E-06
   42.9599991      -2.54750057E-06
   43.0800018      -2.55235523E-06
   43.2000008      -2.47427738E-06
   43.3199997      -2.30936939E-06
   43.4399986      -2.05731681E-06
   43.5600014      -1.72173793E-06
   43.6800003      -1.31033289E-06
   43.7999992      -8.34798357E-07
   43.9199982      -3.10492084E-07
   44.0400009       2.44147373E-07
   44.1599998       8.08405559E-07
   44.2799988       1.36027904E-06
   44.4000015       1.87758667E-06
   44.5200005       2.33913420E-06
   44.6399994       2.72585885E-06
   44.7599983       3.02187163E-06
   44.8800011       3.21533025E-06
   45.0000000       3.29908107E-06
   45.1199989       3.27102862E-06
   45.2400017       3.13420628E-06
   45.3600006       2.89654918E-06
   45.4799995       2.57038687E-06
   45.5999985       2.17169600E-06
   45.7200012       1.71916372E-06
   45.8400002       1.23312941E-06
   45.9599991       7.34473815E-07
   46.0800018       2.43525648E-07
   46.2000008      -2.20948920E-07
   46.3199997      -6.42616328E-07
   46.4399986      -1.00826207E-06
   46.5600014      -1.30826345E-06
   46.6800003      -1.53683425E-06
   46.7999992      -1.69204179E-06
   46.9199982      -1.77560946E-06
   47.0400009      -1.79253254E-06
   47.1599998      -1.75053947E-06
   47.2799988      -1.65944209E-06
   47.4000015      -1.53041572E-06
   47.5200005      -1.37525819E-06
   47.6399994      -1.20566722E-06
   47.7599983      -1.03257685E-06
   47.8800011      -8.65586514E-07
   48.0000000      -7.12510769E-07
   48.1199989      -5.79065954E-07
   48.2400017      -4.68708379E-07
   48.3600006      -3.82622432E-07
   48.4799995      -3.19855360E-07
   48.5999985      -2.77581051E-07
   48.7200012      -2.51472244E-07
   48.8400002      -2.36151465E-07
   48.9599991      -2.25688041E-07
   49.0800018      -2.14105043E-07
   49.2000008      -1.95860679E-07
   49.3199997      -1.66270041E-07
   49.4399986      -1.21838710E-07
   49.5600014      -6.04864212E-08
   49.6800003       1.83522904E-08
   49.7999992       1.13752286E-07
   49.9199982       2.23438946E-07
   50.0400009       3.44027143E-07
   50.1599998       4.71330537E-07
   50.2799988       6.00707267E-07
   50.4000015       7.27405052E-07
   50.5200005       8.46869966E-07
   50.6399994       9.54986945E-07
   50.7599983       1.04823118E-06
   50.8800011       1.12371958E-06
   51.0000000       1.17916431E-06
   51.1199989       1.21274741E-06
   51.2400017       1.22294398E-06
   51.3600006       1.20833363E-06
   51.4799995       1.16744241E-06
   51.5999985       1.09865653E-06
   51.7200012       1.00024283E-06
   51.8400002       8.70496649E-07
   51.9599991       7.08021616E-07
   52.0800018       5.12125212E-07
   52.2000008       2.83294838E-07
   52.3199997       2.37007853E-08
   52.4399986      -2.62339370E-07
   52.5600014      -5.68006328E-07
   52.6800003      -8.83804091E-07
   52.7999992      -1.19762092E-06
   52.9199982      -1.49506650E-06
   53.0400009      -1.76009598E-06
   53.1599998      -1.97590657E-06
   53.2799988      -2.12605642E-06
   53.4000015      -2.19573212E-06
   53.5200005      -2.17306547E-06
   53.6399994      -2.05038168E-06
   53.7599983      -1.82526753E-06
   53.8800011      -1.50133894E-06
   54.0000000      -1.08861809E-06
   54.1199989      -6.03452349E-07
   54.2400017      -6.79406895E-08
   54.3600006       4.91123558E-07
   54.4799995       1.04374362E-06
   54.5999985       1.55855639E-06
   54.7200012       2.00489171E-06
   54.8400002       2.35490666E-06
   54.9599991       2.58563159E-06
   55.0800018       2.68076724E-06
   55.2000008       2.63207835E-06
   55.3199997       2.44026069E-06
   55.4399986       2.11519364E-06
   55.5600014       1.67553208E-06
   55.6800003       1.14764748E-06
   55.7999992       5.63977096E-07
   55.9199982      -3.91101658E-08
   56.0400009      -6.23783194E-07
   56.1599998      -1.15337184E-06
   56.2799988      -1.59494971E-06
   56.4000015      -1.92167840E-06
   56.5200005      -2.11473230E-06
   56.6399994      -2.16465287E-06
   56.7599983      -2.07201879E-06
   56.8800011      -1.84738121E-06
   57.0000000      -1.51045970E-06
   57.1199989      -1.08865800E-06
   57.2400017      -6.15010265E-07
   57.3600006      -1.25716838E-07
   57.4799995       3.42545462E-07
   57.5999985       7.55329040E-07
   57.7200012       1.08293318E-06
   57.8400002       1.30254159E-06
   57.9599991       1.39982103E-06
   58.0800018       1.36986705E-06
   58.2000008       1.21743142E-06
   58.3199997       9.56429744E-07
   58.4399986       6.08777327E-07
   58.5600014       2.02658953E-07
   58.6800003      -2.29624291E-07
   58.7999992      -6.54056407E-07
   58.9199982      -1.03736852E-06
   59.0400009      -1.34937648E-06
   59.1599998      -1.56502529E-06
   59.2799988      -1.66600444E-06
   59.4000015      -1.64183427E-06
   59.5200005      -1.49037362E-06
   59.6399994      -1.21774326E-06
   59.7599983      -8.37703851E-07
   59.8800011      -3.70567307E-07
   60.0000000       1.58257933E-07
   60.1199989       7.19960553E-07
   60.2400017       1.28413353E-06
   60.3600006       1.82056920E-06
   60.4799995       2.30093133E-06
   60.5999985       2.70021155E-06
   60.7200012       2.99790258E-06
   60.8400002       3.17884519E-06
   60.9599991       3.23373024E-06
   61.0800018       3.15926491E-06
   61.2000008       2.95802329E-06
   61.3199997       2.63802508E-06
   61.4399986       2.21209211E-06
   61.5600014       1.69704140E-06
   61.6800003       1.11277416E-06
   61.7999992       4.81316874E-07
   61.9199982      -1.74130264E-07
   62.0400009      -8.30095757E-07
   62.1599998      -1.46365505E-06
   62.2799988      -2.05314177E-06
   62.4000015      -2.57874331E-06
   62.5200005      -3.02297917E-06
   62.6399994      -3.37107440E-06
   62.7599983      -3.61124376E-06
   62.8800011      -3.73490707E-06
   63.0000000      -3.73685430E-06
   63.1199989      -3.61537604E-06
   63.2400017      -3.37237225E-06
   63.3600006      -3.01343061E-06
   63.4799995      -2.54787324E-06
   63.5999985      -1.98874272E-06
   63.7200012      -1.35270795E-06
   63.8400002      -6.59851821E-07
   63.9599991       6.66906672E-08
   64.0800018       8.01271256E-07
   64.1999969       1.51646418E-06
   64.3199997       2.18400442E-06
   64.4400024       2.77591334E-06
   64.5599976       3.26577924E-06
   64.6800003       3.63013328E-06
   64.8000031       3.84984696E-06
   64.9199982       3.91145204E-06
   65.0400009       3.80828237E-06
   65.1600037       3.54132430E-06
   65.2799988       3.11967983E-06
   65.4000015       2.56055705E-06
   65.5199966       1.88873628E-06
   65.6399994       1.13549675E-06
   65.7600021       3.37035004E-07
   65.8799973      -4.67548887E-07
   66.0000000      -1.23857274E-06
   66.1200027      -1.93824258E-06
   66.2399979      -2.53308554E-06
   66.3600006      -2.99614976E-06
   66.4800034      -3.30878561E-06
   66.5999985      -3.46184470E-06
   66.7200012      -3.45619037E-06
   66.8399963      -3.30245234E-06
   66.9599991      -3.02004037E-06
   67.0800018      -2.63548827E-06
   67.1999969      -2.18026571E-06
   67.3199997      -1.68823840E-06
   67.4400024      -1.19300034E-06
   67.5599976      -7.25300765E-07
   67.6800003      -3.10788323E-07
   67.8000031       3.17396989E-08
   67.9199982       2.91441580E-07
   68.0400009       4.65807688E-07
   68.1600037       5.60295462E-07
   68.2799988       5.87275736E-07
   68.4000015       5.64403024E-07
   68.5199966       5.12574729E-07
   68.6399994       4.53674204E-07
   68.7600021       4.08309376E-07
   68.8799973       3.93754419E-07
   69.0000000       4.22276287E-07
   69.1200027       4.99992495E-07
   69.2399979       6.26351095E-07
   69.3600006       7.94267407E-07
   69.4800034       9.90891294E-07
   69.5999985       1.19891990E-06
   69.7200012       1.39832480E-06
   69.8399963       1.56832402E-06
   69.9599991       1.68941449E-06
   70.0800018       1.74527202E-06
   70.1999969       1.72434682E-06
   70.3199997       1.62101003E-06
   70.4400024       1.43615034E-06
   70.5599976       1.17717491E-06
   70.6800003       8.57418740E-07
   70.8000031       4.95027450E-07
   70.9199982       1.11418686E-07
   71.0400009      -2.70527579E-07
   71.1600037      -6.28384214E-07
   71.2799988      -9.42019199E-07
   71.4000015      -1.19519791E-06
   71.5199966      -1.37680354E-06
   71.6399994      -1.48156789E-06
   71.7600021      -1.51025483E-06
   71.8799973      -1.46928835E-06
   72.0000000      -1.36986989E-06
   72.1200027      -1.22667848E-06
   72.2399979      -1.05628590E-06
   72.3600006      -8.75446574E-07
   72.4800034      -6.99432519E-07
   72.5999985      -5.40581595E-07
   72.7200012      -4.07203061E-07