  -30.0000000       0.00000000    
  -29.8799992       0.00000000    
  -29.7600002       0.00000000    
  -29.6399994       0.00000000    
  -29.5200005       0.00000000    
  -29.3999996       0.00000000    
  -29.2800007       0.00000000    
  -29.1599998       0.00000000    
  -29.0400009       0.00000000    
  -28.9200001       0.00000000    
  -28.7999992      -0.00000000    
  -28.6800003       1.42932443E-43
  -28.5599995       2.68208526E-42
  -28.4400005       1.66614387E-41
  -28.3199997       1.55151766E-41
  -28.2000008      -2.94865427E-40
  -28.0799999      -1.21286025E-39
  -27.9599991       4.26643114E-39
  -27.8400002       6.77176250E-38
  -27.7199993       3.85894818E-37
  -27.6000004       1.40645910E-36
  -27.4799995       3.48599149E-36
  -27.3600006       4.89596339E-36
  -27.2399998      -3.23273430E-36
  -27.1200008      -4.32688048E-35
  -27.0000000      -1.46736328E-34
  -26.8799992      -3.11910424E-34
  -26.7600002      -3.95480335E-34
  -26.6399994       3.15989986E-35
  -26.5200005       1.67909670E-33
  -26.3999996       5.00190809E-33
  -26.2800007       8.77645829E-33
  -26.1599998       8.13336370E-33
  -26.0400009      -5.94505754E-33
  -25.9200001      -4.17192261E-32
  -25.7999992      -9.26870478E-32
  -25.6800003      -1.17008543E-31
  -25.5599995      -2.71042960E-32
  -25.4400005       2.77096838E-31
  -25.3199997       7.96396012E-31
  -25.2000008       1.24797947E-30
  -25.0799999       9.13943660E-31
  -24.9599991      -1.24136699E-30
  -24.8400002      -5.88953327E-30
  -24.7199993      -1.19709719E-29
  -24.6000004      -1.50676408E-29
  -24.4799995      -6.80017351E-30
  -24.3600006       2.27115168E-29
  -24.2399998       7.74412157E-29
  -24.1200008       1.43210875E-28
  -24.0000000       1.74978873E-28
  -23.8799992       9.37576762E-29
  -23.7600002      -1.92214983E-28
  -23.6399994      -7.28543909E-28
  -23.5200005      -1.41652629E-27
  -23.3999996      -1.90134622E-27
  -23.2800007      -1.51345854E-27
  -23.1599998       6.25083578E-28
  -23.0400009       5.19611084E-27
  -22.9200001       1.18990847E-26
  -22.7999992       1.83818874E-26
  -22.6800003       1.93447815E-26
  -22.5599995       6.75926761E-27
  -22.4400005      -2.74739484E-26
  -22.3199997      -8.53034308E-26
  -22.2000008      -1.53040569E-25
  -22.0799999      -1.91990761E-25
  -21.9599991      -1.36882281E-25
  -21.8400002       8.68231591E-26
  -21.7199993       5.17167349E-25
  -21.6000004       1.08314192E-24
  -21.4799995       1.53031906E-24
  -21.3600006       1.40006077E-24
  -21.2399998       1.38715422E-25
  -21.1200008      -2.60242156E-24
  -21.0000000      -6.49517580E-24
  -20.8799992      -1.00583781E-23
  -20.7600002      -1.05205922E-23
  -20.6399994      -4.45967801E-24
  -20.5200005       1.04775054E-23
  -20.3999996       3.29550966E-23
  -20.2800007       5.54100002E-23
  -20.1599998       6.34091697E-23
  -20.0400009       3.90123398E-23
  -19.9200001      -3.06578611E-23
  -19.7999992      -1.40924674E-22
  -19.6800003      -2.58083431E-22
  -19.5599995      -3.17150205E-22
  -19.4400005      -2.37432819E-22
  -19.3199997       4.03815878E-23
  -19.2000008       5.02817366E-22
  -19.0799999       1.01918597E-21
  -18.9599991       1.33599413E-21
  -18.8400002       1.13990891E-21
  -18.7199993       1.97178459E-22
  -18.6000004      -1.46323343E-21
  -18.4799995      -3.40179319E-21
  -18.3600006      -4.76197498E-21
  -18.2399998      -4.49184316E-21
  -18.1200008      -1.79884924E-21
  -18.0000000       3.28637323E-21
  -17.8799992       9.48889415E-21
  -17.7600002       1.43131957E-20
  -17.6399994       1.47192703E-20
  -17.5200005       8.40231325E-21
  -17.3999996      -4.72153967E-21
  -17.2800007      -2.15074763E-20
  -17.1599998      -3.57725080E-20
  -17.0400009      -4.00646125E-20
  -16.9200001      -2.87121596E-20
  -16.7999992      -1.08226738E-21
  -16.6800003       3.64977160E-20
  -16.5599995       7.15096024E-20
  -16.4400005       8.90834875E-20
  -16.3199997       7.78210680E-20
  -16.2000008       3.52400751E-20
  -16.0799999      -2.98312445E-20
  -15.9600000      -9.94728631E-20
  -15.8400002      -1.52826853E-19
  -15.7200003      -1.73221753E-19
  -15.6000004      -1.52436126E-19
  -15.4799995      -8.98334366E-20
  -15.3599997       1.22244588E-20
  -15.2399998       1.51461656E-19
  -15.1199999       3.21040531E-19
  -15.0000000       4.95025204E-19
  -14.8800001       6.10565792E-19
  -14.7600002       5.62734745E-19
  -14.6400003       2.30901161E-19
  -14.5200005      -4.54248767E-19
  -14.3999996      -1.41753332E-18
  -14.2799997      -2.36404662E-18
  -14.1599998      -2.78528959E-18
  -14.0400000      -2.10018511E-18
  -13.9200001       6.52856499E-20
  -13.8000002       3.53755783E-18
  -13.6800003       7.35307978E-18
  -13.5600004       9.80621624E-18
  -13.4399996       8.92090468E-18
  -13.3199997       3.31659907E-18
  -13.1999998      -6.78760671E-18
  -13.0799999      -1.88831354E-17
  -12.9600000      -2.82959032E-17
  -12.8400002      -2.94315329E-17
  -12.7200003      -1.80174231E-17
  -12.6000004       6.33034788E-18
  -12.4799995       3.83182419E-17
  -12.3599997       6.71211076E-17
  -12.2399998       7.91286930E-17
  -12.1199999       6.29692631E-17
  -12.0000000       1.53051128E-17
  -11.8800001      -5.49755551E-17
  -11.7600002      -1.26587618E-16
  -11.6400003      -1.71047094E-16
  -11.5200005      -1.62566388E-16
  -11.3999996      -8.96612036E-17
  -11.2799997       3.61369137E-17
  -11.1599998       1.79056836E-16
  -11.0400000       2.87858615E-16
  -10.9200001       3.13338266E-16
  -10.8000002       2.29131783E-16
  -10.6800003       4.75845243E-17
  -10.5600004      -1.77365324E-16
  -10.4399996      -3.64525632E-16
  -10.3199997      -4.34628143E-16
  -10.1999998      -3.44828357E-16
  -10.0799999      -1.14428990E-16
  -9.96000004       1.71649136E-16
  -9.84000015       3.88337237E-16
  -9.72000027       4.20115319E-16
  -9.60000038       2.18159450E-16
  -9.47999954      -1.59371512E-16
  -9.35999966      -5.46792431E-16
  -9.23999977      -7.21008844E-16
  -9.11999989      -4.93327394E-16
  -9.00000000       1.87104694E-16
  -8.88000011       1.16175354E-15
  -8.76000023       2.06460829E-15
  -8.64000034       2.41860433E-15
  -8.52000046       1.81253764E-15
  -8.39999962       1.05895973E-16
  -8.27999973      -2.41762325E-15
  -8.15999985      -5.02769281E-15
  -8.03999996      -6.70330524E-15
  -7.92000008      -6.45384303E-15
  -7.80000019      -3.72126858E-15
  -7.67999983       1.27522769E-15
  -7.55999994       7.40322551E-15
  -7.44000006       1.27959387E-14
  -7.32000017       1.53545305E-14
  -7.19999981       1.34588843E-14
  -7.07999992       6.66568131E-15
  -6.96000004      -3.87053780E-15
  -6.84000015      -1.54675535E-14
  -6.71999979      -2.45486513E-14
  -6.59999990      -2.77132341E-14
  -6.48000002      -2.29335034E-14
  -6.36000013      -1.04658002E-14
  -6.23999977       6.89608825E-15
  -6.11999989       2.44128838E-14
  -6.00000000       3.67408232E-14
  -5.88000011       3.96383806E-14
  -5.76000023       3.14743654E-14
  -5.63999987       1.39812224E-14
  -5.51999998      -8.08470586E-15
  -5.40000010      -2.83461405E-14
  -5.28000021      -4.08477404E-14
  -5.15999985      -4.20459566E-14
  -5.03999996      -3.20231783E-14
  -4.92000008      -1.44469109E-14
  -4.80000019       4.75973859E-15
  -4.67999983       1.95805998E-14
  -4.55999994       2.61019335E-14
  -4.44000006       2.38894208E-14
  -4.32000017       1.59787429E-14
  -4.19999981       7.44162320E-15
  -4.07999992       3.06917158E-15
  -3.96000004       5.11231479E-15
  -3.83999991       1.20578706E-14
  -3.72000003       1.90532896E-14
  -3.59999990       1.99402364E-14
  -3.48000002       1.01618560E-14
  -3.35999990      -1.06435229E-14
  -3.24000001      -3.75477983E-14
  -3.11999989      -6.14216523E-14
  -3.00000000      -7.20459662E-14
  -2.88000011      -6.22106872E-14
  -2.75999999      -3.12179414E-14
  -2.64000010       1.37518755E-14
  -2.51999998       5.92711237E-14
  -2.40000010       9.00356585E-14
  -2.27999997       9.45684096E-14
  -2.16000009       7.01270029E-14
  -2.03999996       2.47363267E-14
  -1.91999996      -2.48422956E-14
  -1.79999995      -5.89148345E-14
  -1.67999995      -6.25928278E-14
  -1.55999994      -3.26143836E-14
  -1.44000006       1.96193464E-14
  -1.32000005       7.05505329E-14
  -1.20000005       9.23361322E-14
  -1.08000004       6.37923349E-14
 -0.959999979      -1.93859313E-14
 -0.839999974      -1.39183383E-13
 -0.720000029      -2.57421959E-13
 -0.600000024      -3.25914886E-13
 -0.479999989      -3.02158499E-13
 -0.360000014      -1.65805385E-13
 -0.239999995       6.97079249E-14
 -0.119999997       3.55014412E-13
  -1.11022302E-15   6.14125016E-13
  0.119999997       7.63611884E-13
  0.239999995       7.36765575E-13
  0.360000014       5.05837126E-13
  0.479999989       9.55248183E-14
  0.600000024      -4.16991989E-13
  0.720000029      -9.16533017E-13
  0.839999974      -1.27591741E-12
  0.959999979      -1.38720751E-12
   1.08000004      -1.19034903E-12
   1.20000005      -6.91898036E-13
   1.32000005       3.10353007E-14
   1.44000006       8.42911136E-13
   1.55999994       1.57548551E-12
   1.67999995       2.06169587E-12
   1.79999995       2.17069787E-12
   1.91999996       1.83707671E-12
   2.03999996       1.07864574E-12
   2.16000009      -4.81974188E-16
   2.27999997      -1.22231121E-12
   2.40000010      -2.36124922E-12
   2.51999998      -3.18069312E-12
   2.64000010      -3.47493280E-12
   2.75999999      -3.11041145E-12
   2.88000011      -2.05985012E-12
   3.00000000      -4.22739724E-13
   3.11999989       1.57353525E-12
   3.24000001       3.59580074E-12
   3.35999990       5.25107735E-12
   3.48000002       6.15260447E-12
   3.59999990       5.99692041E-12
   3.72000003       4.63825766E-12
   3.83999991       2.14373246E-12
   3.96000004      -1.18660669E-12
   4.07999992      -4.84588151E-12
   4.19999981      -8.19459865E-12
   4.32000017      -1.05733061E-11
   4.44000006      -1.14326569E-11
   4.55999994      -1.04521556E-11
   4.67999983      -7.61802513E-12
   4.80000019      -3.23796719E-12
   4.92000008       2.11447808E-12
   5.03999996       7.71451739E-12
   5.15999985       1.28306896E-11
   5.28000021       1.68600967E-11
   5.40000010       1.94158353E-11
   5.51999998       2.03410587E-11
   5.63999987       1.96462187E-11
   5.76000023       1.73905508E-11
   5.88000011       1.35480212E-11
   6.00000000       7.90458757E-12
   6.11999989       2.47724509E-14
   6.23999977      -1.06968904E-11
   6.36000013      -2.49129120E-11
   6.48000002      -4.31673516E-11
   6.59999990      -6.57597310E-11
   6.71999979      -9.26756033E-11
   6.84000015      -1.23608748E-10
   6.96000004      -1.58068184E-10
   7.07999992      -1.95532646E-10
   7.19999981      -2.35596265E-10
   7.32000017      -2.78051249E-10
   7.44000006      -3.22874477E-10
   7.55999994      -3.70118686E-10
   7.67999983      -4.19746737E-10
   7.80000019      -4.71469974E-10
   7.92000008      -5.24655985E-10
   8.03999996      -5.78353476E-10
   8.15999985      -6.31444785E-10
   8.27999973      -6.82896573E-10
   8.39999962      -7.32047700E-10
   8.52000046      -7.78856868E-10
   8.64000034      -8.24043334E-10
   8.76000023      -8.69080863E-10
   8.88000011      -9.16041798E-10
   9.00000000      -9.67326330E-10
   9.11999989      -1.02533482E-09
   9.23999977      -1.09215048E-09
   9.35999966      -1.16929044E-09
   9.47999954      -1.25756439E-09
   9.60000038      -1.35705669E-09
   9.72000027      -1.46722345E-09
   9.84000015      -1.58708313E-09
   9.96000004      -1.71546599E-09
   10.0799999      -1.85128435E-09
   10.1999998      -1.99378181E-09
   10.3199997      -2.14272688E-09
   10.4399996      -2.29851382E-09
   10.5600004      -2.46215670E-09
   10.6800003      -2.63516720E-09
   10.8000002      -2.81934409E-09
   10.9200001      -3.01651371E-09
   11.0400000      -3.22827409E-09
   11.1599998      -3.45580897E-09
   11.2799997      -3.69980646E-09
   11.3999996      -3.96051414E-09
   11.5200005      -4.23790558E-09
   11.6400003      -4.53192195E-09
   11.7600002      -4.84273066E-09
   11.8800001      -5.17093168E-09
   12.0000000      -5.51768409E-09
   12.1199999      -5.88472071E-09
   12.2399998      -6.27426866E-09
   12.3599997      -6.68891253E-09
   12.4799995      -7.13142967E-09
   12.6000004      -7.60464935E-09
   12.7200003      -8.11133827E-09
   12.8400002      -8.65412897E-09
   12.9600000      -9.23548615E-09
   13.0799999      -9.85768178E-09
   13.1999998      -1.05227818E-08
   13.3199997      -1.12326379E-08
   13.4399996      -1.19889005E-08
   13.5600004      -1.27930688E-08
   13.6800003      -1.36465950E-08
   13.8000002      -1.45510572E-08
   13.9200001      -1.55083839E-08
   14.0400000      -1.65210867E-08
   14.1599998      -1.75924590E-08
   14.2799997      -1.87266540E-08
   14.3999996      -1.99285957E-08
   14.5200005      -2.12036788E-08
   14.6400003      -2.25573036E-08
   14.7600002      -2.39942839E-08
   14.8800001      -2.55183128E-08
   15.0000000      -2.71315930E-08
   15.1199999      -2.88348030E-08
   15.2399998      -3.06274757E-08
   15.3599997      -3.25087193E-08
   15.4799995      -3.44781839E-08
   15.6000004      -3.65370312E-08
   15.7200003      -3.86886398E-08
   15.8400002      -4.09389038E-08
   15.9600000      -4.32959304E-08
   16.0799999      -4.57693119E-08
   16.2000008      -4.83691203E-08
   16.3199997      -5.11049159E-08
   16.4400005      -5.39850831E-08
   16.5599995      -5.70165639E-08
   16.6800003      -6.02051955E-08
   16.7999992      -6.35562856E-08
   16.9200001      -6.70753266E-08
   17.0400009      -7.07684222E-08
   17.1599998      -7.46424149E-08
   17.2800007      -7.87044740E-08
   17.3999996      -8.29614066E-08
   17.5200005      -8.74189183E-08
   17.6399994      -9.20811587E-08
   17.7600002      -9.69508207E-08
   17.8799992      -1.02029652E-07
   18.0000000      -1.07319615E-07
   18.1200008      -1.12824097E-07
   18.2399998      -1.18548847E-07
   18.3600006      -1.24502549E-07
   18.4799995      -1.30696606E-07
   18.6000004      -1.37144184E-07
   18.7199993      -1.43858898E-07
   18.8400002      -1.50853495E-07
   18.9599991      -1.58138732E-07
   19.0799999      -1.65723009E-07
   19.2000008      -1.73612619E-07
   19.3199997      -1.81812709E-07
   19.4400005      -1.90328365E-07
   19.5599995      -1.99165797E-07
   19.6800003      -2.08332963E-07
   19.7999992      -2.17839769E-07
   19.9200001      -2.27697228E-07
   20.0400009      -2.37916552E-07
   20.1599998      -2.48507746E-07
   20.2800007      -2.59478583E-07
   20.3999996      -2.70834136E-07
   20.5200005      -2.82577048E-07
   20.6399994      -2.94708457E-07
   20.7600002      -3.07228959E-07
   20.8799992      -3.20140032E-07
   21.0000000      -3.33444831E-07
   21.1200008      -3.47148500E-07
   21.2399998      -3.61258088E-07
   21.3600006      -3.75781639E-07
   21.4799995      -3.90727536E-07
   21.6000004      -4.06103652E-07
   21.7199993      -4.21916667E-07
   21.8400002      -4.38172037E-07
   21.9599991      -4.54873799E-07
   22.0799999      -4.72024709E-07
   22.2000008      -4.89626075E-07
   22.3199997      -5.07677726E-07
   22.4400005      -5.26177985E-07
   22.5599995      -5.45123555E-07
   22.6800003      -5.64510401E-07
   22.7999992      -5.84334202E-07
   22.9200001      -6.04591435E-07
   23.0400009      -6.25280109E-07
   23.1599998      -6.46399826E-07
   23.2800007      -6.67951554E-07
   23.3999996      -6.89936428E-07
   23.5200005      -7.12353824E-07
   23.6399994      -7.35199990E-07
   23.7600002      -7.58466967E-07
   23.8799992      -7.82142251E-07
   24.0000000      -8.06209528E-07
   24.1200008      -8.30649810E-07
   24.2399998      -8.55443432E-07
   24.3600006      -8.80571065E-07
   24.4799995      -9.06014805E-07
   24.6000004      -9.31757484E-07
   24.7199993      -9.57782731E-07
   24.8400002      -9.84073608E-07
   24.9599991      -1.01061266E-06
   25.0799999      -1.03738216E-06
   25.2000008      -1.06436357E-06
   25.3199997      -1.09153871E-06
   25.4400005      -1.11888892E-06
   25.5599995      -1.14639522E-06
   25.6800003      -1.17403602E-06
   25.7999992      -1.20178618E-06
   25.9200001      -1.22961580E-06
   26.0400009      -1.25749114E-06
   26.1599998      -1.28537442E-06
   26.2800007      -1.31322668E-06
   26.3999996      -1.34100969E-06
   26.5200005      -1.36868766E-06
   26.6399994      -1.39622819E-06
   26.7600002      -1.42360147E-06
   26.8799992      -1.45077752E-06
   27.0000000      -1.47772323E-06
   27.1200008      -1.50440064E-06
   27.2399998      -1.53076644E-06
   27.3600006      -1.55677230E-06
   27.4799995      -1.58236764E-06
   27.6000004      -1.60750187E-06
   27.7199993      -1.63212781E-06
   27.8400002      -1.65620258E-06
   27.9599991      -1.67968767E-06
   28.0799999      -1.70254691E-06
   28.2000008      -1.72474449E-06
   28.3199997      -1.74624222E-06
   28.4400005      -1.76699803E-06
   28.5599995      -1.78696553E-06
   28.6800003      -1.80609527E-06
   28.7999992      -1.82433621E-06
   28.9200001      -1.84163753E-06
   29.0400009      -1.85795079E-06
   29.1599998      -1.87323076E-06
   29.2800007      -1.88743479E-06
   29.3999996      -1.90052151E-06
   29.5200005      -1.91245090E-06
   29.6399994      -1.92318248E-06
   29.7600002      -1.93267579E-06
   29.8799992      -1.94089012E-06
   30.0000000      -1.94778454E-06
   30.1200008      -1.95331859E-06
   30.2399998      -1.95745542E-06
   30.3600006      -1.96016254E-06
   30.4799995      -1.96141286E-06
   30.6000004      -1.96118208E-06
   30.7199993      -1.95944881E-06
   30.8400002      -1.95619077E-06
   30.9599991      -1.95138637E-06
   31.0799999      -1.94501104E-06
   31.2000008      -1.93704227E-06
   31.3199997      -1.92745915E-06
   31.4400005      -1.91624508E-06
   31.5599995      -1.90339085E-06
   31.6800003      -1.88889567E-06
   31.7999992      -1.87276760E-06
   31.9200001      -1.85502165E-06
   32.0400009      -1.83567647E-06
   32.1599998      -1.81475264E-06
   32.2799988      -1.79226925E-06
   32.4000015      -1.76824267E-06
   32.5200005      -1.74268962E-06
   32.6399994      -1.71562851E-06
   32.7599983      -1.68708164E-06
   32.8800011      -1.65707615E-06
   33.0000000      -1.62564481E-06
   33.1199989      -1.59282740E-06
   33.2400017      -1.55867269E-06
   33.3600006      -1.52323810E-06
   33.4799995      -1.48658989E-06
   33.5999985      -1.44880380E-06
   33.7200012      -1.40996303E-06
   33.8400002      -1.37015650E-06
   33.9599991      -1.32947605E-06
   34.0800018      -1.28801673E-06
   34.2000008      -1.24587450E-06
   34.3199997      -1.20314746E-06
   34.4399986      -1.15993703E-06
   34.5600014      -1.11635177E-06
   34.6800003      -1.07251037E-06
   34.7999992      -1.02854290E-06
   34.9199982      -9.84591907E-07
   35.0400009      -9.40812129E-07
   35.1599998      -8.97363009E-07
   35.2799988      -8.54407347E-07
   35.4000015      -8.12107999E-07
   35.5200005      -7.70627992E-07
   35.6399994      -7.30134104E-07
   35.7599983      -6.90800050E-07
   35.8800011      -6.52812787E-07
   36.0000000      -6.16372233E-07
   36.1199989      -5.81691836E-07
   36.2400017      -5.48996866E-07
   36.3600006      -5.18517481E-07
   36.4799995      -4.90485149E-07
   36.5999985      -4.65130853E-07
   36.7200012      -4.42684211E-07
   36.8400002      -4.23376406E-07
   36.9599991      -4.07442968E-07
   37.0800018      -3.95126222E-07
   37.2000008      -3.86677783E-07
   37.3199997      -3.82359758E-07
   37.4399986      -3.82445478E-07
   37.5600014      -3.87219558E-07
   37.6800003      -3.96976532E-07
   37.7999992      -4.12021279E-07
   37.9199982      -4.32665985E-07
   38.0400009      -4.59227977E-07
   38.1599998      -4.92026629E-07
   38.2799988      -5.31382341E-07
   38.4000015      -5.77612582E-07
   38.5200005      -6.31031583E-07
   38.6399994      -6.91953176E-07
   38.7599983      -7.60693581E-07
   38.8800011      -8.37576295E-07
   39.0000000      -9.22935897E-07
   39.1199989      -1.01712010E-06
   39.2400017      -1.12049054E-06
   39.3600006      -1.23341749E-06
   39.4799995      -1.35627658E-06
   39.5999985      -1.48944184E-06
   39.7200012      -1.63328298E-06
   39.8400002      -1.78816470E-06
   39.9599991      -1.95444750E-06
   40.0800018      -2.13249086E-06
   40.2000008      -2.32265756E-06
   40.3199997      -2.52531504E-06
   40.4399986      -2.74083823E-06
   40.5600014      -2.96960798E-06
   40.6800003      -3.21201105E-06
   40.7999992      -3.46843399E-06
   40.9199982      -3.73926150E-06
   41.0400009      -4.02487422E-06
   41.1599998      -4.32564593E-06
   41.2799988      -4.64194545E-06
   41.4000015      -4.97413703E-06
   41.5200005      -5.32258446E-06
   41.6399994      -5.68765427E-06
   41.7599983      -6.06971935E-06
   41.8800011      -6.46916124E-06
   42.0000000      -6.88637056E-06
   42.1199989      -7.32174840E-06
   42.2400017      -7.77569494E-06
   42.3600006      -8.24860854E-06
   42.4799995      -8.74087527E-06
   42.5999985      -9.25287077E-06
   42.7200012      -9.78494791E-06
   42.8400002      -1.03374496E-05
   42.9599991      -1.09107104E-05
   43.0800018      -1.15050643E-05
   43.2000008      -1.21208532E-05
   43.3199997      -1.27584226E-05
   43.4399986      -1.34181255E-05
   43.5600014      -1.41003156E-05
   43.6800003      -1.48053305E-05
   43.7999992      -1.55334947E-05
   43.9199982      -1.62851084E-05
   44.0400009      -1.70604580E-05
   44.1599998      -1.78598166E-05
   44.2799988      -1.86834532E-05
   44.4000015      -1.95316388E-05
   44.5200005      -2.04046464E-05
   44.6399994      -2.13027488E-05
   44.7599983      -2.22262061E-05
   44.8800011      -2.31752674E-05
   45.0000000      -2.41501602E-05
   45.1199989      -2.51510810E-05
   45.2400017      -2.61782025E-05
   45.3600006      -2.72316720E-05
   45.4799995      -2.83116278E-05
   45.5999985      -2.94181846E-05
   45.7200012      -3.05514477E-05
   45.8400002      -3.17115118E-05
   45.9599991      -3.28984388E-05
   46.0800018      -3.41122905E-05
   46.2000008      -3.53531141E-05
   46.3199997      -3.66209279E-05
   46.4399986      -3.79157536E-05
   46.5600014      -3.92376060E-05
   46.6800003      -4.05864885E-05
   46.7999992      -4.19623757E-05
   46.9199982      -4.33652385E-05
   47.0400009      -4.47950151E-05
   47.1599998      -4.62516036E-05
   47.2799988      -4.77348804E-05
   47.4000015      -4.92446925E-05
   47.5200005      -5.07808472E-05
   47.6399994      -5.23431227E-05
   47.7599983      -5.39312823E-05
   47.8800011      -5.55450606E-05
   48.0000000      -5.71841629E-05
   48.1199989      -5.88482799E-05
   48.2400017      -6.05370915E-05
   48.3600006      -6.22502484E-05
   48.4799995      -6.39873833E-05
   48.5999985      -6.57480923E-05
   48.7200012      -6.75319243E-05
   48.8400002      -6.93383990E-05
   48.9599991      -7.11669709E-05
   49.0800018      -7.30170723E-05
   49.2000008      -7.48880921E-05
   49.3199997      -7.67793608E-05
   49.4399986      -7.86902237E-05
   49.5600014      -8.06199387E-05
   49.6800003      -8.25677926E-05
   49.7999992      -8.45329996E-05
   49.9199982      -8.65147449E-05
   50.0400009      -8.85121699E-05
   50.1599998      -9.05244160E-05
   50.2799988      -9.25505665E-05
   50.4000015      -9.45896973E-05
   50.5200005      -9.66408261E-05
   50.6399994      -9.87029489E-05
   50.7599983      -1.00775018E-04
   50.8800011      -1.02855927E-04
   51.0000000      -1.04944498E-04
   51.1199989      -1.07039516E-04
   51.2400017      -1.09139721E-04
   51.3600006      -1.11243811E-04
   51.4799995      -1.13350463E-04
   51.5999985      -1.15458359E-04
   51.7200012      -1.17566145E-04
   51.8400002      -1.19672426E-04
   51.9599991      -1.21775767E-04
   52.0800018      -1.23874706E-04
   52.2000008      -1.25967752E-04
   52.3199997      -1.28053318E-04
   52.4399986      -1.30129789E-04
   52.5600014      -1.32195535E-04
   52.6800003      -1.34248825E-04
   52.7999992      -1.36287927E-04
   52.9199982      -1.38311050E-04
   53.0400009      -1.40316377E-04
   53.1599998      -1.42302059E-04
   53.2799988      -1.44266189E-04
   53.4000015      -1.46206876E-04
   53.5200005      -1.48122184E-04
   53.6399994      -1.50010179E-04
   53.7599983      -1.51868866E-04
   53.8800011      -1.53696281E-04
   54.0000000      -1.55490357E-04
   54.1199989      -1.57248971E-04
   54.2400017      -1.58970011E-04
   54.3600006      -1.60651281E-04
   54.4799995      -1.62290613E-04
   54.5999985      -1.63885750E-04
   54.7200012      -1.65434481E-04
   54.8400002      -1.66934580E-04
   54.9599991      -1.68383776E-04
   55.0800018      -1.69779785E-04
   55.2000008      -1.71120308E-04
   55.3199997      -1.72403001E-04
   55.4399986      -1.73625507E-04
   55.5600014      -1.74785469E-04
   55.6800003      -1.75880501E-04
   55.7999992      -1.76908274E-04
   55.9199982      -1.77866357E-04
   56.0400009      -1.78752409E-04
   56.1599998      -1.79564056E-04
   56.2799988      -1.80298928E-04
   56.4000015      -1.80954623E-04
   56.5200005      -1.81528798E-04
   56.6399994      -1.82019023E-04
   56.7599983      -1.82422911E-04
   56.8800011      -1.82738091E-04
   57.0000000      -1.82962220E-04
   57.1199989      -1.83092954E-04
   57.2400017      -1.83127966E-04
   57.3600006      -1.83064927E-04
   57.4799995      -1.82901509E-04
   57.5999985      -1.82635413E-04
   57.7200012      -1.82264353E-04
   57.8400002      -1.81786090E-04
   57.9599991      -1.81198397E-04
   58.0800018      -1.80499119E-04
   58.2000008      -1.79686118E-04
   58.3199997      -1.78757298E-04
   58.4399986      -1.77710652E-04
   58.5600014      -1.76544170E-04
   58.6800003      -1.75255889E-04
   58.7999992      -1.73843902E-04
   58.9199982      -1.72306361E-04
   59.0400009      -1.70641448E-04
   59.1599998      -1.68847415E-04
   59.2799988      -1.66922531E-04
   59.4000015      -1.64865123E-04
   59.5200005      -1.62673605E-04
   59.6399994      -1.60346404E-04
   59.7599983      -1.57882081E-04
   59.8800011      -1.55279253E-04
   60.0000000      -1.52536624E-04
   60.1199989      -1.49652973E-04
   60.2400017      -1.46627135E-04
   60.3600006      -1.43458077E-04
   60.4799995      -1.40144752E-04
   60.5999985      -1.36686300E-04
   60.7200012      -1.33081950E-04
   60.8400002      -1.29330976E-04
   60.9599991      -1.25432794E-04
   61.0800018      -1.21386911E-04
   61.2000008      -1.17192925E-04
   61.3199997      -1.12850539E-04
   61.4399986      -1.08359527E-04
   61.5600014      -1.03719758E-04
   61.6800003      -9.89312248E-05
   61.7999992      -9.39940728E-05
   61.9199982      -8.89085495E-05
   62.0400009      -8.36750405E-05
   62.1599998      -7.82940551E-05
   62.2799988      -7.27662045E-05
   62.4000015      -6.70922236E-05
   62.5200005      -6.12729200E-05
   62.6399994      -5.53092577E-05
   62.7599983      -4.92023391E-05
   62.8800011      -4.29534302E-05
   63.0000000      -3.65639426E-05
   63.1199989      -3.00354277E-05
   63.2400017      -2.33695755E-05
   63.3600006      -1.65681940E-05
   63.4799995      -9.63321781E-06
   63.5999985      -2.56671274E-06
   63.7200012       4.62910339E-06
   63.8400002       1.19518481E-05
   63.9599991       1.93989708E-05
   64.0800018       2.69677585E-05
   64.1999969       3.46553570E-05
   64.3199997       4.24587706E-05
   64.4400024       5.03748997E-05
   64.5599976       5.84005138E-05
   64.6800003       6.65322659E-05
   64.8000031       7.47666636E-05
   64.9199982       8.31000507E-05
   65.0400009       9.15285927E-05
   65.1600037       1.00048259E-04
   65.2799988       1.08654865E-04
   65.4000015       1.17344120E-04
   65.5199966       1.26111598E-04
   65.6399994       1.34952730E-04
   65.7600021       1.43862810E-04
   65.8799973       1.52836976E-04
   66.0000000       1.61870237E-04
   66.1200027       1.70957414E-04
   66.2399979       1.80093179E-04
   66.3600006       1.89272076E-04
   66.4800034       1.98488502E-04
   66.5999985       2.07736797E-04
   66.7200012       2.17011228E-04
   66.8399963       2.26305856E-04
   66.9599991       2.35614702E-04
   67.0800018       2.44931609E-04
   67.1999969       2.54250364E-04
   67.3199997       2.63564609E-04
   67.4400024       2.72867881E-04
   67.5599976       2.82153604E-04
   67.6800003       2.91415141E-04
   67.8000031       3.00645712E-04
   67.9199982       3.09838593E-04
   68.0400009       3.18986888E-04
   68.1600037       3.28083610E-04
   68.2799988       3.37121746E-04
   68.4000015       3.46094224E-04
   68.5199966       3.54993826E-04
   68.6399994       3.63813364E-04
   68.7600021       3.72545590E-04
   68.8799973       3.81183287E-04
   69.0000000       3.89719149E-04
   69.1200027       3.98145872E-04
   69.2399979       4.06456209E-04
   69.3600006       4.14642913E-04
   69.4800034       4.22698649E-04
   69.5999985       4.30616201E-04
   69.7200012       4.38388321E-04
   69.8399963       4.46007703E-04
   69.9599991       4.53467044E-04
   70.0800018       4.60759242E-04
   70.1999969       4.67877078E-04
   70.3199997       4.74813540E-04
   70.4400024       4.81561699E-04
   70.5599976       4.88114660E-04
   70.6800003       4.94465698E-04
   70.8000031       5.00608236E-04
   70.9199982       5.06535638E-04
   71.0400009       5.12241444E-04
   71.1600037       5.17719367E-04
   71.2799988       5.22963295E-04
   71.4000015       5.27967350E-04
   71.5199966       5.32725477E-04
   71.6399994       5.37232205E-04
   71.7600021       5.41481946E-04
   71.8799973       5.45469287E-04
   72.0000000       5.49189048E-04
   72.1200027       5.52636222E-04
   72.2399979       5.55806211E-04
   72.3600006       5.58694417E-04
   72.4800034       5.61296649E-04
   72.5999985       5.63608948E-04
   72.7200012       5.65627590E-04