  -30.0000000       0.00000000    
  -29.8799992       0.00000000    
  -29.7600002       0.00000000    
  -29.6399994       0.00000000    
  -29.5200005       0.00000000    
  -29.3999996       0.00000000    
  -29.2800007      -2.52233724E-44
  -29.1599998      -1.42932443E-43
  -29.0400009       1.90576591E-43
  -28.9200001       3.75968378E-42
  -28.7999992       1.61807934E-41
  -28.6800003       3.43135955E-41
  -28.5599995       1.57870285E-41
  -28.4400005      -1.42960469E-40
  -28.3199997      -5.47879674E-40
  -28.2000008      -1.09668420E-39
  -28.0799999      -1.26504321E-39
  -27.9599991      -3.96746832E-40
  -27.8400002       9.75054300E-40
  -27.7199993      -5.74330583E-40
  -27.6000004      -1.02765414E-38
  -27.4799995      -2.62987288E-38
  -27.3600006      -2.15590876E-38
  -27.2399998       7.25584666E-38
  -27.1200008       3.50730118E-37
  -27.0000000       8.48465997E-37
  -26.8799992       1.37715712E-36
  -26.7600002       1.34884318E-36
  -26.6399994      -2.32878586E-37
  -26.5200005      -4.38377171E-36
  -26.3999996      -1.12244177E-35
  -26.2800007      -1.87415728E-35
  -26.1599998      -2.19020125E-35
  -26.0400009      -1.31550043E-35
  -25.9200001       1.47667431E-35
  -25.7999992       6.37142332E-35
  -25.6800003       1.24152120E-34
  -25.5599995       1.71426439E-34
  -25.4400005       1.68018137E-34
  -25.3199997       7.44121329E-35
  -25.2000008      -1.31939747E-34
  -25.0799999      -4.34489115E-34
  -24.9599991      -7.61161199E-34
  -24.8400002      -9.83906037E-34
  -24.7199993      -9.41938684E-34
  -24.6000004      -4.89727247E-34
  -24.4799995       4.38350889E-34
  -24.3600006       1.76357875E-33
  -24.2399998       3.22102607E-33
  -24.1200008       4.36241455E-33
  -24.0000000       4.61955578E-33
  -23.8799992       3.43257024E-33
  -23.7600002       4.31955190E-34
  -23.6399994      -4.35349035E-33
  -23.5200005      -1.03087093E-32
  -23.3999996      -1.61272726E-32
  -23.2800007      -1.98638826E-32
  -23.1599998      -1.92169111E-32
  -23.0400009      -1.20833355E-32
  -22.9200001       2.64189270E-33
  -22.7999992       2.41612725E-32
  -22.6800003       4.90343509E-32
  -22.5599995       7.09699425E-32
  -22.4400005       8.15188582E-32
  -22.3199997       7.18754493E-32
  -22.2000008       3.56643840E-32
  -22.0799999      -2.78517488E-32
  -21.9599991      -1.11113756E-31
  -21.8400002      -1.97309524E-31
  -21.7199993      -2.62078934E-31
  -21.6000004      -2.78222421E-31
  -21.4799995      -2.22838558E-31
  -21.3600006      -8.53701891E-32
  -21.2399998       1.25600937E-31
  -21.1200008       3.79034110E-31
  -21.0000000       6.23213580E-31
  -20.8799992       7.93165754E-31
  -20.7600002       8.22955414E-31
  -20.6399994       6.60988514E-31
  -20.5200005       2.85723815E-31
  -20.3999996      -2.81131299E-31
  -20.2800007      -9.66925072E-31
  -20.1599998      -1.64877396E-30
  -20.0400009      -2.16528260E-30
  -19.9200001      -2.34095731E-30
  -19.7999992      -2.02296616E-30
  -19.6800003      -1.12643815E-30
  -19.5599995       3.20037294E-31
  -19.4400005       2.14141273E-30
  -19.3199997       4.01058097E-30
  -19.2000008       5.48298036E-30
  -19.0799999       6.07658319E-30
  -18.9599991       5.38981538E-30
  -18.8400002       3.23505224E-30
  -18.7199993      -2.47202747E-31
  -18.6000004      -4.53342205E-30
  -18.4799995      -8.75504732E-30
  -18.3600006      -1.18442412E-29
  -18.2399998      -1.27739651E-29
  -18.1200008      -1.08475499E-29
  -18.0000000      -5.96702825E-30
  -17.8799992       1.20217121E-30
  -17.7600002       9.24361437E-30
  -17.6399994       1.62205792E-29
  -17.5200005       2.01137729E-29
  -17.3999996       1.93903665E-29
  -17.2800007       1.35670751E-29
  -17.1599998       3.59028400E-30
  -17.0400009      -8.14118198E-30
  -16.9200001      -1.82247681E-29
  -16.7999992      -2.31672731E-29
  -16.6800003      -2.05910183E-29
  -16.5599995      -1.03959193E-29
  -16.4400005       4.56657324E-30
  -16.3199997       1.87353758E-29
  -16.2000008       2.52414229E-29
  -16.0799999       1.83625142E-29
  -15.9600000      -3.52746595E-30
  -15.8400002      -3.55002243E-29
  -15.7200003      -6.53194428E-29
  -15.6000004      -7.54672940E-29
  -15.4799995      -4.84124952E-29
  -15.3599997       2.54929238E-29
  -15.2399998       1.39443936E-28
  -15.1199999       2.64126703E-28
  -15.0000000       3.47957763E-28
  -14.8800001       3.26802843E-28
  -14.7600002       1.44196337E-28
  -14.6400003      -2.20607475E-28
  -14.5200005      -7.23969825E-28
  -14.3999996      -1.23984485E-27
  -14.2799997      -1.56529446E-27
  -14.1599998      -1.45978479E-27
  -14.0400000      -7.20413499E-28
  -13.9200001       7.17846813E-28
  -13.8000002       2.68321118E-27
  -13.6800003       4.70863217E-27
  -13.5600004       6.05711670E-27
  -13.4399996       5.86359502E-27
  -13.3199997       3.39795865E-27
  -13.1999998      -1.58980086E-27
  -13.0799999      -8.53170248E-27
  -12.9600000      -1.58418230E-26
  -12.8400002      -2.09976900E-26
  -12.7200003      -2.10120251E-26
  -12.6000004      -1.33122512E-26
  -12.4799995       3.09760756E-27
  -12.3599997       2.64843563E-26
  -12.2399998       5.16739053E-26
  -12.1199999       7.02607902E-26
  -12.0000000       7.21148906E-26
  -11.8800001       4.82665346E-26
  -11.7600002      -5.21694825E-27
  -11.6400003      -8.33041492E-26
  -11.5200005      -1.69439557E-25
  -11.3999996      -2.35955717E-25
  -11.2799997      -2.48751213E-25
  -11.1599998      -1.76597213E-25
  -11.0400000      -3.92214285E-27
  -10.9200001       2.55888457E-25
  -10.8000002       5.51245548E-25
  -10.6800003       7.92448447E-25
  -10.5600004       8.65556033E-25
  -10.4399996       6.61644117E-25
  -10.3199997       1.18317833E-25
  -10.1999998      -7.35498705E-25
  -10.0799999      -1.74587481E-24
  -9.96000004      -2.62849992E-24
  -9.84000015      -3.00693385E-24
  -9.72000027      -2.50160257E-24
  -9.60000038      -8.62177441E-25
  -9.47999954       1.88267019E-24
  -9.35999966       5.30234830E-24
  -9.23999977       8.52373280E-24
  -9.11999989       1.03254974E-23
  -9.00000000       9.39769050E-24
  -8.88000011       4.75370855E-24
  -8.76000023      -3.77661834E-24
  -8.64000034      -1.51048688E-23
  -8.52000046      -2.66679225E-23
  -8.39999962      -3.46158823E-23
  -8.27999973      -3.45254631E-23
  -8.15999985      -2.26368117E-23
  -8.03999996       2.56641262E-24
  -7.92000008       3.88109563E-23
  -7.80000019       7.90573428E-23
  -7.67999983       1.11676552E-22
  -7.55999994       1.22238844E-22
  -7.44000006       9.70401655E-23
  -7.32000017       2.79704833E-23
  -7.19999981      -8.22893374E-23
  -7.07999992      -2.16307806E-22
  -6.96000004      -3.41022575E-22
  -6.84000015      -4.11574079E-22
  -6.71999979      -3.80657421E-22
  -6.59999990      -2.12748566E-22
  -6.48000002       9.92905584E-23
  -6.36000013       5.19555960E-22
  -6.23999977       9.61924820E-22
  -6.11999989       1.29582094E-21
  -6.00000000       1.36853650E-21
  -5.88000011       1.04395929E-21
  -5.76000023       2.52285694E-22
  -5.63999987      -9.60392537E-22
  -5.51999998      -2.39822379E-21
  -5.40000010      -3.71441657E-21
  -5.28000021      -4.45627641E-21
  -5.15999985      -4.16094749E-21
  -5.03999996      -2.49235840E-21
  -4.92000008       6.06630754E-22
  -4.80000019       4.78761274E-21
  -4.67999983       9.24401234E-21
  -4.55999994       1.27764985E-20
  -4.44000006       1.40007330E-20
  -4.32000017       1.16870669E-20
  -4.19999981       5.17764819E-21
  -4.07999992      -5.21702005E-21
  -3.96000004      -1.79686651E-20
  -3.83999991      -3.03550146E-20
  -3.72000003      -3.88425372E-20
  -3.59999990      -3.98328662E-20
  -3.48000002      -3.06664449E-20
  -3.35999990      -1.06614146E-20
  -3.24000001       1.81185383E-20
  -3.11999989       5.06874986E-20
  -3.00000000       7.97853764E-20
  -2.88000011       9.73896798E-20
  -2.75999999       9.68540932E-20
  -2.64000010       7.51442405E-20
  -2.51999998       3.44288404E-20
  -2.40000010      -1.77405054E-20
  -2.27999997      -7.01789273E-20
  -2.16000009      -1.11720022E-19
  -2.03999996      -1.35974444E-19
  -1.91999996      -1.45597669E-19
  -1.79999995      -1.53920838E-19
  -1.67999995      -1.81834707E-19
  -1.55999994      -2.48713875E-19
  -1.44000006      -3.58023234E-19
  -1.32000005      -4.80854721E-19
  -1.20000005      -5.43421680E-19
  -1.08000004      -4.26547651E-19
 -0.959999979       1.47242285E-20
 -0.839999974       9.06186080E-19
 -0.720000029       2.28546260E-18
 -0.600000024       4.01997535E-18
 -0.479999989       5.73428319E-18
 -0.360000014       6.77920503E-18
 -0.239999995       6.27963551E-18
 -0.119999997       3.29252419E-18
  -1.11022302E-15  -2.91243449E-18
  0.119999997      -1.24702664E-17
  0.239999995      -2.45020939E-17
  0.360000014      -3.67744218E-17
  0.479999989      -4.55886036E-17
  0.600000024      -4.60644310E-17
  0.720000029      -3.29492872E-17
  0.839999974      -1.99593719E-18
  0.959999979       4.81951093E-17
   1.08000004       1.14163656E-16
   1.20000005       1.85905071E-16
   1.32000005       2.46169268E-16
   1.44000006       2.71452725E-16
   1.55999994       2.35270945E-16
   1.67999995       1.13957298E-16
   1.79999995      -1.05343099E-16
   1.91999996      -4.15574269E-16
   2.03999996      -7.81479215E-16
   2.16000009      -1.13473108E-15
   2.27999997      -1.37542788E-15
   2.40000010      -1.38260320E-15
   2.51999998      -1.03529004E-15
   2.64000010      -2.43667715E-16
   2.75999999       1.01297305E-15
   2.88000011       2.64791203E-15
   3.00000000       4.43777459E-15
   3.11999989       6.01378697E-15
   3.24000001       6.88483796E-15
   3.35999990       6.50085929E-15
   3.48000002       4.35892218E-15
   3.59999990       1.45216453E-16
   3.72000003      -6.10535758E-15
   3.83999991      -1.38620974E-14
   3.96000004      -2.20036341E-14
   4.07999992      -2.88192491E-14
   4.19999981      -3.21461743E-14
   4.32000017      -2.96677152E-14
   4.44000006      -1.93705949E-14
   4.55999994      -1.23484420E-16
   4.67999983       2.77032408E-14
   4.80000019       6.16967753E-14
   4.92000008       9.70895117E-14
   5.03999996       1.26831854E-13
   5.15999985       1.42183479E-13
   5.28000021       1.33894997E-13
   5.40000010       9.39543921E-14
   5.51999998       1.77434768E-14
   5.63999987      -9.36913240E-14
   5.76000023      -2.31679883E-13
   5.88000011      -3.78794598E-13
   6.00000000      -5.09068373E-13
   6.11999989      -5.90002114E-13
   6.23999977      -5.86591593E-13
   6.36000013      -4.67281812E-13
   6.48000002      -2.11347216E-13
   6.59999990       1.83250089E-13
   6.71999979       6.92876095E-13
   6.84000015       1.26373857E-12
   6.96000004       1.81157075E-12
   7.07999992       2.22689987E-12
   7.19999981       2.38671561E-12
   7.32000017       2.17241589E-12
   7.44000006       1.49271654E-12
   7.55999994       3.08902182E-13
   7.67999983      -1.34140518E-12
   7.80000019      -3.32664885E-12
   7.92000008      -5.41486040E-12
   8.03999996      -7.28270222E-12
   8.15999985      -8.54295801E-12
   8.27999973      -8.79100785E-12
   8.39999962      -7.66765904E-12
   8.52000046      -4.93226250E-12
   8.64000034      -5.36599790E-13
   8.76000023       5.31256636E-12
   8.88000011       1.21156132E-11
   9.00000000       1.90795279E-11
   9.11999989       2.51643775E-11
   9.23999977       2.91811887E-11
   9.35999966       2.99383088E-11
   9.47999954       2.64248345E-11
   9.60000038       1.80111308E-11
   9.72000027       4.63906994E-12
   9.84000015      -1.30298871E-11
   9.96000004      -3.35411282E-11
   10.0799999      -5.46756529E-11
   10.1999998      -7.35991060E-11
   10.3199997      -8.71342373E-11
   10.4399996      -9.21416415E-11
   10.5600004      -8.59743804E-11
   10.6800003      -6.69536995E-11
   10.8000002      -3.47999338E-11
   10.9200001       9.05304044E-12
   11.0400000       6.13275750E-11
   11.1599998       1.17008528E-10
   11.2799997       1.69712605E-10
   11.3999996       2.12312640E-10
   11.5200005       2.37769471E-10
   11.6400003       2.40084841E-10
   11.7600002       2.15256604E-10
   11.8800001       1.62097294E-10
   12.0000000       8.27754254E-11
   12.1199999      -1.70422860E-11
   12.2399998      -1.28528382E-10
   12.3599997      -2.40531844E-10
   12.4799995      -3.40861589E-10
   12.6000004      -4.17884144E-10
   12.7200003      -4.62232808E-10
   12.8400002      -4.68372452E-10
   12.9600000      -4.35743941E-10
   13.0799999      -3.69228315E-10
   13.1999998      -2.78735451E-10
   13.3199997      -1.77824519E-10
   13.4399996      -8.14072212E-11
   13.5600004      -2.74469792E-12
   13.6800003       4.98868551E-11
   13.8000002       7.63473451E-11
   13.9200001       8.69938427E-11
   14.0400000       1.03626524E-10
   14.1599998       1.58465754E-10
   14.2799997       2.90777347E-10
   14.3999996       5.41032052E-10
   14.5200005       9.42836142E-10
   14.6400003       1.51327162E-09
   14.7600002       2.24269114E-09
   14.8800001       3.08537706E-09
   15.0000000       3.95273814E-09
   15.1199999       4.71080241E-09
   15.2399998       5.18365972E-09
   15.3599997       5.16415000E-09
   15.4799995       4.43246861E-09
   15.6000004       2.78252510E-09
   15.7200003       5.48498573E-11
   15.8400002      -3.82629128E-09
   15.9600000      -8.81502604E-09
   16.0799999      -1.47097001E-08
   16.2000008      -2.11275051E-08
   16.3199997      -2.74932805E-08
   16.4400005      -3.30476055E-08
   16.5599995      -3.68782622E-08
   16.6800003      -3.79776033E-08
   16.7999992      -3.53262415E-08
   16.9200001      -2.80004500E-08
   17.0400009      -1.52978572E-08
   17.1599998       3.12727133E-09
   17.2800007       2.71307119E-08
   17.3999996       5.59609035E-08
   17.5200005       8.81727686E-08
   17.6399994       1.21588414E-07
   17.7600002       1.53318894E-07
   17.8799992       1.79858645E-07
   18.0000000       1.97259880E-07
   18.1200008       2.01388119E-07
   18.2399998       1.88253907E-07
   18.3600006       1.54407644E-07
   18.4799995       9.73776864E-08
   18.6000004       1.61242966E-08
   18.7199993      -8.85224765E-08
   18.8400002      -2.13477648E-07
   18.9599991      -3.53105975E-07
   19.0799999      -4.99052021E-07
   19.2000008      -6.40227313E-07
   19.3199997      -7.62977322E-07
   19.4400005      -8.51443076E-07
   19.5599995      -8.88118279E-07
   19.6800003      -8.54591576E-07
   19.7999992      -7.32446949E-07
   19.9200001      -5.04287129E-07
   20.0400009      -1.54828413E-07
   20.1599998       3.27989738E-07
   20.2800007       9.51943889E-07
   20.3999996       1.71957981E-06
   20.5200005       2.62744288E-06
   20.6399994       3.66554150E-06
   20.7600002       4.81709003E-06
   20.8799992       6.05856621E-06
   21.0000000       7.36009997E-06
   21.1200008       8.68619099E-06
   21.2399998       9.99674285E-06
   21.3600006       1.12483776E-05
   21.4799995       1.23959835E-05
   21.6000004       1.33944213E-05
   21.7199993       1.42003346E-05
   21.8400002       1.47739656E-05
   21.9599991       1.50809037E-05
   22.0799999       1.50936803E-05
   22.2000008       1.47931351E-05
   22.3199997       1.41694909E-05
   22.4400005       1.32230725E-05
   22.5599995       1.19646320E-05
   22.6800003       1.04152696E-05
   22.7999992       8.60593082E-06
   22.9200001       6.57650844E-06
   23.0400009       4.37457402E-06
   23.1599998       2.05379115E-06
   23.2800007      -3.27918514E-07
   23.3999996      -2.71038334E-06
   23.5200005      -5.03328147E-06
   23.6399994      -7.23823905E-06
   23.7600002      -9.27084329E-06
   23.8799992      -1.10824776E-05
   24.0000000      -1.26319264E-05
   24.1200008      -1.38866499E-05
   24.2399998      -1.48237286E-05
   24.3600006      -1.54304053E-05
   24.4799995      -1.57042359E-05
   24.6000004      -1.56528586E-05
   24.7199993      -1.52933844E-05
   24.8400002      -1.46514676E-05
   24.9599991      -1.37600964E-05
   25.0799999      -1.26581699E-05
   25.2000008      -1.13889255E-05
   25.3199997      -9.99828262E-06
   25.4400005      -8.53318943E-06
   25.5599995      -7.04000604E-06
   25.6800003      -5.56301802E-06
   25.7999992      -4.14309761E-06
   25.9200001      -2.81657299E-06
   26.0400009      -1.61432285E-06
   26.1599998      -5.61113382E-07
   26.2800007       3.24816284E-07
   26.3999996       1.03192588E-06
   26.5200005       1.55531518E-06
   26.6399994       1.89645630E-06
   26.7600002       2.06274080E-06
   26.8799992       2.06687196E-06
   27.0000000       1.92613038E-06
   27.1200008       1.66154484E-06
   27.2399998       1.29699708E-06
   27.3600006       8.58287649E-07
   27.4799995       3.72188651E-07
   27.6000004      -1.34493050E-07
   27.7199993      -6.35821550E-07
   27.8400002      -1.10758606E-06
   27.9599991      -1.52808411E-06
   28.0799999      -1.87881403E-06
   28.2000008      -2.14506076E-06
   28.3199997      -2.31635477E-06
   28.4400005      -2.38678513E-06
   28.5599995      -2.35515699E-06
   28.6800003      -2.22497488E-06
   28.7999992      -2.00424665E-06
   28.9200001      -1.70510771E-06
   29.0400009      -1.34326706E-06
   29.1599998      -9.37291418E-07
   29.2800007      -5.07748553E-07
   29.3999996      -7.62428201E-08
   29.5200005       3.35619319E-07
   29.6399994       7.07285096E-07
   29.7600002       1.02028332E-06
   29.8799992       1.25916938E-06
   30.0000000       1.41233704E-06
   30.1200008       1.47264905E-06
   30.2399998       1.43784644E-06
   30.3600006       1.31070829E-06
   30.4799995       1.09894438E-06
   30.6000004       8.14822045E-07
   30.7199993       4.74537700E-07
   30.8400002       9.73650245E-08
   30.9599991      -2.95378982E-07
   31.0799999      -6.81494953E-07
   31.2000008      -1.03912555E-06
   31.3199997      -1.34797460E-06
   31.4400005      -1.59045180E-06
   31.5599995      -1.75267519E-06
   31.6800003      -1.82527128E-06
   31.7999992      -1.80392453E-06
   31.9200001      -1.68963857E-06
   32.0400009      -1.48869367E-06
   32.1599998      -1.21229448E-06
   32.2799988      -8.75931107E-07
   32.4000015      -4.98483587E-07
   32.5200005      -1.01125231E-07
   32.6399994       2.93913303E-07
   32.7599983       6.64644745E-07
   32.8800011       9.90613103E-07
   33.0000000       1.25409053E-06
   33.1199989       1.44110993E-06
   33.2400017       1.54227234E-06
   33.3600006       1.55327825E-06
   33.4799995       1.47515163E-06
   33.5999985       1.31414549E-06
   33.7200012       1.08133406E-06
   33.8400002       7.91920058E-07
   33.9599991       4.64301849E-07
   34.0800018       1.18957772E-07
   34.2000008      -2.22780741E-07
   34.3199997      -5.39991788E-07
   34.4399986      -8.13384304E-07
   34.5600014      -1.02640456E-06
   34.6800003      -1.16616252E-06
   34.7999992      -1.22412462E-06
   34.9199982      -1.19653521E-06
   35.0400009      -1.08454640E-06
   35.1599998      -8.94052903E-07
   35.2799988      -6.35246579E-07
   35.4000015      -3.21926763E-07
   35.5200005       2.93907068E-08
   35.6399994       4.00503779E-07
   35.7599983       7.72627516E-07
   35.8800011       1.12750001E-06
   36.0000000       1.44842102E-06
   36.1199989       1.72115904E-06
   36.2400017       1.93467235E-06
   36.3600006       2.08160191E-06
   36.4799995       2.15851310E-06
   36.5999985       2.16587569E-06
   36.7200012       2.10779467E-06
   36.8400002       1.99152055E-06
   36.9599991       1.82677809E-06
   37.0800018       1.62497349E-06
   37.2000008       1.39833799E-06
   37.3199997       1.15907517E-06
   37.4399986       9.18572539E-07
   37.5600014       6.86734154E-07
   37.6800003       4.71475659E-07
   37.7999992       2.78411534E-07
   37.9199982       1.10746143E-07
   38.0400009      -3.06367269E-08
   38.1599998      -1.46906018E-07
   38.2799988      -2.40871458E-07
   38.4000015      -3.16471557E-07
   38.5200005      -3.78210643E-07
   38.6399994      -4.30596089E-07
   38.7599983      -4.77623416E-07
   38.8800011      -5.22349637E-07
   39.0000000      -5.66586266E-07
   39.1199989      -6.10730751E-07
   39.2400017      -6.53743086E-07
   39.3600006      -6.93262052E-07
   39.4799995      -7.25844586E-07
   39.5999985      -7.47303488E-07
   39.7200012      -7.53112431E-07
   39.8400002      -7.38844392E-07
   39.9599991      -7.00608098E-07
   40.0800018      -6.35450192E-07
   40.2000008      -5.41693964E-07
   40.3199997      -4.19190627E-07
   40.4399986      -2.69466852E-07
   40.5600014      -9.57583666E-08
   40.6800003       9.70723519E-08
   40.7999992       3.02728466E-07
   40.9199982       5.13769237E-07
   41.0400009       7.21979745E-07
   41.1599998       9.18796331E-07
   41.2799988       1.09576092E-06
   41.4000015       1.24497524E-06
   41.5200005       1.35952655E-06
   41.6399994       1.43385705E-06
   41.7599983       1.46405512E-06
   41.8800011       1.44804801E-06
   42.0000000       1.38568714E-06
   42.1199989       1.27871920E-06
   42.2400017       1.13064971E-06
   42.3600006       9.46508294E-07
   42.4799995       7.32536137E-07
   42.5999985       4.95820530E-07
   42.7200012       2.43903003E-07
   42.8400002      -1.56080997E-08
   42.9599991      -2.75392750E-07
   43.0800018      -5.28717067E-07
   43.2000008      -7.69654491E-07
   43.3199997      -9.93219032E-07
   43.4399986      -1.19540573E-06
   43.5600014      -1.37314407E-06
   43.6800003      -1.52417715E-06
   43.7999992      -1.64688663E-06
   43.9199982      -1.74008744E-06
   44.0400009      -1.80282325E-06
   44.1599998      -1.83418729E-06
   44.2799988      -1.83319764E-06
   44.4000015      -1.79874587E-06
   44.5200005      -1.72963291E-06
   44.6399994      -1.62469462E-06
   44.7599983      -1.48301160E-06
   44.8800011      -1.30418618E-06
   45.0000000      -1.08865959E-06
   45.1199989      -8.38035248E-07
   45.2400017      -5.55372822E-07
   45.3600006      -2.45410888E-07
   45.4799995       8.53154489E-08
   45.5999985       4.28490807E-07
   45.7200012       7.74188436E-07
   45.8400002       1.11119641E-06
   45.9599991       1.42749138E-06
   46.0800018       1.71083650E-06
   46.2000008       1.94946347E-06
   46.3199997       2.13279372E-06
   46.4399986       2.25213898E-06
   46.5600014       2.30132696E-06
   46.6800003       2.27719943E-06
   46.7999992       2.17993352E-06
   46.9199982       2.01315720E-06
   47.0400009       1.78384278E-06
   47.1599998       1.50198127E-06
   47.2799988       1.18005335E-06
   47.4000015       8.32339595E-07
   47.5200005       4.74114216E-07
   47.6399994       1.20781422E-07
   47.7599983      -2.12985015E-07
   47.8800011      -5.14039812E-07
   48.0000000      -7.71450004E-07
   48.1199989      -9.77023092E-07
   48.2400017      -1.12565090E-06
   48.3600006      -1.21545600E-06
   48.4799995      -1.24774033E-06
   48.5999985      -1.22675044E-06
   48.7200012      -1.15928492E-06
   48.8400002      -1.05417337E-06
   48.9599991      -9.21667720E-07
   49.0800018      -7.72781675E-07
   49.2000008      -6.18619140E-07
   49.3199997      -4.69724824E-07
   49.4399986      -3.35492331E-07
   49.5600014      -2.23654226E-07
   49.6800003      -1.39879774E-07
   49.7999992      -8.74961472E-08
   49.9199982      -6.73471590E-08
   50.0400009      -7.77956615E-08
   50.1599998      -1.14871540E-07
   50.2799988      -1.72559808E-07
   50.4000015      -2.43216391E-07
   50.5200005      -3.18091594E-07
   50.6399994      -3.87934278E-07
   50.7599983      -4.43641511E-07
   50.8800011      -4.76914806E-07
   51.0000000      -4.80879010E-07
   51.1199989      -4.50620718E-07
   51.2400017      -3.83606391E-07
   51.3600006      -2.79944771E-07
   51.4799995      -1.42472103E-07
   51.5999985       2.33533370E-08
   51.7200012       2.09743220E-07
   51.8400002       4.07041227E-07
   51.9599991       6.04324384E-07
   52.0800018       7.90102661E-07
   52.2000008       9.53066206E-07
   52.3199997       1.08282825E-06
   52.4399986       1.17061029E-06
   52.5600014       1.20982236E-06
   52.6800003       1.19649928E-06
   52.7999992       1.12956570E-06
   52.9199982       1.01091621E-06
   53.0400009       8.45309614E-07
   53.1599998       6.40092537E-07
   53.2799988       4.04773402E-07
   53.4000015       1.50482649E-07
   53.5200005      -1.10644642E-07
   53.6399994      -3.66122151E-07
   53.7599983      -6.03762999E-07
   53.8800011      -8.12291717E-07
   54.0000000      -9.81887069E-07
   54.1199989      -1.10463350E-06
   54.2400017      -1.17486502E-06
   54.3600006      -1.18939374E-06
   54.4799995      -1.14762065E-06
   54.5999985      -1.05153413E-06
   54.7200012      -9.05599961E-07
   54.8400002      -7.16557452E-07
   54.9599991      -4.93127914E-07
   55.0800018      -2.45648977E-07
   55.2000008       1.43548640E-08
   55.3199997       2.74654724E-07
   55.4399986       5.22840082E-07
   55.5600014       7.46868864E-07
   55.6800003       9.35628350E-07
   55.7999992       1.07948608E-06
   55.9199982       1.17080845E-06
   56.0400009       1.20441621E-06
   56.1599998       1.17794946E-06
   56.2799988       1.09210896E-06
   56.4000015       9.50745573E-07
   56.5200005       7.60774810E-07
   56.6399994       5.31904163E-07
   56.7599983       2.76170539E-07
   56.8800011       7.30457872E-09
   57.0000000      -2.60047699E-07
   57.1199989      -5.11200199E-07
   57.2400017      -7.32339231E-07
   57.3600006      -9.11406175E-07
   57.4799995      -1.03888192E-06
   57.5999985      -1.10840710E-06
   57.7200012      -1.11718668E-06
   57.8400002      -1.06614266E-06
   57.9599991      -9.59801696E-07
   58.0800018      -8.05927016E-07
   58.2000008      -6.14929888E-07
   58.3199997      -3.99113190E-07
   58.4399986      -1.71814904E-07
   58.5600014       5.34741424E-08
   58.6800003       2.63944941E-07
   58.7999992       4.48194868E-07
   58.9199982       5.96795076E-07
   59.0400009       7.02674299E-07
   59.1599998       7.61314368E-07
   59.2799988       7.70774875E-07
   59.4000015       7.31577700E-07
   59.5200005       6.46495153E-07
   59.6399994       5.20285710E-07
   59.7599983       3.59416987E-07
   59.8800011       1.71804473E-07
   60.0000000      -3.34211556E-08
   60.1199989      -2.46123875E-07
   60.2400017      -4.55367825E-07
   60.3600006      -6.49650076E-07
   60.4799995      -8.17195712E-07
   60.5999985      -9.46346631E-07
   60.7200012      -1.02606339E-06
   60.8400002      -1.04654123E-06
   60.9599991      -9.99919166E-07
   61.0800018      -8.81034964E-07
   61.2000008      -6.88161606E-07
   61.3199997      -4.23640273E-07
   61.4399986      -9.43241716E-08
   61.5600014       2.88250959E-07
   61.6800003       7.08035657E-07
   61.7999992       1.14501449E-06
   61.9199982       1.57613624E-06
   62.0400009       1.97659165E-06
   62.1599998       2.32136335E-06
   62.2799988       2.58693854E-06
   62.4000015       2.75304455E-06
   62.5200005       2.80426570E-06
   62.6399994       2.73138403E-06
   62.7599983       2.53231906E-06
   62.8800011       2.21256482E-06
   63.0000000       1.78506309E-06
   63.1199989       1.26951136E-06
   63.2400017       6.91141565E-07
   63.3600006       7.90703325E-08
   63.4799995      -5.35651395E-07
   63.5999985      -1.12212422E-06
   63.7200012      -1.65164931E-06
   63.8400002      -2.09957079E-06
   63.9599991      -2.44676266E-06
   64.0800018      -2.68065060E-06
   64.1999969      -2.79569531E-06
   64.3199997      -2.79333085E-06
   64.4400024      -2.68138342E-06
   64.5599976      -2.47306093E-06
   64.6800003      -2.18562445E-06
   64.8000031      -1.83888642E-06
   64.9199982      -1.45367653E-06
   65.0400009      -1.05041988E-06
   65.1600037      -6.47935110E-07
   65.2799988      -2.62539146E-07
   65.4000015       9.25044503E-08
   65.5199966       4.07193397E-07
   65.6399994       6.74690909E-07
   65.7600021       8.90995466E-07
   65.8799973       1.05446657E-06
   66.0000000       1.16529975E-06
   66.1200027       1.22503866E-06
   66.2399979       1.23619350E-06
   66.3600006       1.20200559E-06
   66.4800034       1.12636815E-06
   66.5999985       1.01388105E-06
   66.7200012       8.69990799E-07
   66.8399963       7.01149702E-07
   66.9599991       5.14922419E-07
   67.0800018       3.19971520E-07
   67.1999969       1.25872347E-07
   67.3199997      -5.72657335E-08
   67.4400024      -2.19366669E-07
   67.5599976      -3.51103665E-07
   67.6800003      -4.44697065E-07
   67.8000031      -4.94706399E-07
   67.9199982      -4.98719942E-07
   68.0400009      -4.57846795E-07
   68.1600037      -3.76932036E-07
   68.2799988      -2.64441297E-07
   68.4000015      -1.31995634E-07
   68.5199966       6.42487974E-09
   68.6399994       1.35552952E-07
   68.7600021       2.40092874E-07
   68.8799973       3.06053579E-07
   69.0000000       3.22033316E-07
   69.1200027       2.80332472E-07
   69.2399979       1.77786120E-07
   69.3600006       1.62346563E-08
   69.4800034      -1.97417066E-07
   69.5999985      -4.51562272E-07
   69.7200012      -7.30647287E-07
   69.8399963      -1.01625517E-06
   69.9599991      -1.28842623E-06
   70.0800018      -1.52710322E-06
   70.1999969      -1.71358283E-06
   70.3199997      -1.83185739E-06
   70.4400024      -1.86974682E-06
   70.5599976      -1.81974019E-06
   70.6800003      -1.67949452E-06
   70.8000031      -1.45197293E-06
   70.9199982      -1.14522902E-06
   71.0400009      -7.71873147E-07
   71.1600037      -3.48277183E-07
   71.2799988       1.06413481E-07
   71.4000015       5.71385499E-07
   71.5199966       1.02530498E-06
   71.6399994       1.44744001E-06
   71.7600021       1.81869780E-06
   71.8799973       2.12253349E-06
   72.0000000       2.34569461E-06
   72.1200027       2.47878052E-06
   72.2399979       2.51660595E-06
   72.3600006       2.45836100E-06
   72.4800034       2.30757360E-06
   72.5999985       2.07187804E-06
   72.7200012       1.76260232E-06