  -30.0000000       0.00000000    
  -29.8799992       0.00000000    
  -29.7600002       0.00000000    
  -29.6399994       0.00000000    
  -29.5200005       0.00000000    
  -29.3999996       0.00000000    
  -29.2800007       0.00000000    
  -29.1599998       0.00000000    
  -29.0400009       0.00000000    
  -28.9200001       0.00000000    
  -28.7999992       0.00000000    
  -28.6800003      -4.20389539E-45
  -28.5599995       6.62029446E-41
  -28.4400005       1.15115548E-39
  -28.3199997       9.56275079E-39
  -28.2000008       4.89334657E-38
  -28.0799999       1.60586573E-37
  -27.9599991       2.71397523E-37
  -27.8400002      -3.88670061E-37
  -27.7199993      -4.64861703E-36
  -27.6000004      -1.88623394E-35
  -27.4799995      -5.10767620E-35
  -27.3600006      -1.00223888E-34
  -27.2399998      -1.36993753E-34
  -27.1200008      -1.00729156E-34
  -27.0000000       3.99882085E-35
  -26.8799992       1.78466652E-34
  -26.7600002       2.19899797E-34
  -26.6399994       1.31110241E-33
  -26.5200005       9.07682722E-33
  -26.3999996       3.78083740E-32
  -26.2800007       1.08402714E-31
  -26.1599998       2.23190666E-31
  -26.0400009       2.96696702E-31
  -25.9200001       4.43858203E-32
  -25.7999992      -1.09202410E-30
  -25.6800003      -3.77353811E-30
  -25.5599995      -8.03090142E-30
  -25.4400005      -1.17649787E-29
  -25.3199997      -8.87252303E-30
  -25.2000008       1.14031446E-29
  -25.0799999       6.08689497E-29
  -24.9599991       1.41103534E-28
  -24.8400002       2.23732971E-28
  -24.7199993       2.28944248E-28
  -24.6000004       2.05866955E-29
  -24.4799995      -5.53227325E-28
  -24.3600006      -1.54658819E-27
  -24.2399998      -2.72892198E-27
  -24.1200008      -3.38475447E-27
  -24.0000000      -2.24361344E-27
  -23.8799992       2.24792425E-27
  -23.7600002       1.11120180E-26
  -23.6399994       2.34480877E-26
  -23.5200005       3.47852376E-26
  -23.3999996       3.60006011E-26
  -23.2800007       1.41004788E-26
  -23.1599998      -4.36843991E-26
  -23.0400009      -1.41563678E-25
  -22.9200001      -2.63204846E-25
  -22.7999992      -3.59318895E-25
  -22.6800003      -3.41490022E-25
  -22.5599995      -9.23556563E-26
  -22.4400005       4.96111221E-25
  -22.3199997       1.44751065E-24
  -22.2000008       2.59215217E-24
  -22.0799999       3.45178119E-24
  -21.9599991       3.18264157E-24
  -21.8400002       6.83194713E-25
  -21.7199993      -5.00646077E-24
  -21.6000004      -1.39304080E-23
  -21.4799995      -2.41454262E-23
  -21.3600006      -3.07338158E-23
  -21.2399998      -2.56765374E-23
  -21.1200008       3.43916879E-25
  -21.0000000       5.32915489E-23
  -20.8799992       1.28346571E-22
  -20.7600002       2.01795264E-22
  -20.6399994       2.27030130E-22
  -20.5200005       1.41537752E-22
  -20.3999996      -1.08891116E-22
  -20.2800007      -5.28110039E-22
  -20.1599998      -1.02051742E-21
  -20.0400009      -1.36036233E-21
  -19.9200001      -1.21564753E-21
  -19.7999992      -2.58843590E-22
  -19.6800003       1.63202846E-21
  -19.5599995       4.13320301E-21
  -19.4400005       6.31314018E-21
  -19.3199997       6.70882493E-21
  -19.2000008       3.77480036E-21
  -19.0799999      -3.28998124E-21
  -18.9599991      -1.35586244E-20
  -18.8400002      -2.37067815E-20
  -18.7199993      -2.82614496E-20
  -18.6000004      -2.12294903E-20
  -18.4799995       9.45371616E-22
  -18.3600006       3.59547301E-20
  -18.2399998       7.33809564E-20
  -18.1200008       9.55935088E-20
  -18.0000000       8.30835200E-20
  -17.8799992       2.37470338E-20
  -17.7600002      -7.68680332E-20
  -17.6399994      -1.89469312E-19
  -17.5200005      -2.64537426E-19
  -17.3999996      -2.48321455E-19
  -17.2800007      -1.08670052E-19
  -17.1599998       1.38665120E-19
  -17.0400009       4.17289510E-19
  -16.9200001       6.04001700E-19
  -16.7999992       5.73412044E-19
  -16.6800003       2.62400715E-19
  -16.5599995      -2.72280767E-19
  -16.4400005      -8.37631368E-19
  -16.3199997      -1.15529359E-18
  -16.2000008      -9.79243189E-19
  -16.0799999      -2.42297021E-19
  -15.9600000       8.38433474E-19
  -15.8400002       1.77287160E-18
  -15.7200003       1.96743833E-18
  -15.6000004       1.02207853E-18
  -15.4799995      -9.60128906E-19
  -15.3599997      -3.22034523E-18
  -15.2399998      -4.49990844E-18
  -15.1199999      -3.54646450E-18
  -15.0000000       1.65916314E-19
  -14.8800001       5.81342162E-18
  -14.7600002       1.10808685E-17
  -14.6400003       1.27803259E-17
  -14.5200005       8.20922578E-18
  -14.3999996      -3.17823181E-18
  -14.2799997      -1.85479155E-17
  -14.1599998      -3.17335765E-17
  -14.0400000      -3.50316647E-17
  -13.9200001      -2.24964506E-17
  -13.8000002       6.37121970E-18
  -13.6800003       4.42531668E-17
  -13.5600004       7.66259488E-17
  -13.4399996       8.61229153E-17
  -13.3199997       5.98281936E-17
  -13.1999998      -3.02715803E-18
  -13.0799999      -8.65332896E-17
  -12.9600000      -1.59937436E-16
  -12.8400002      -1.87029441E-16
  -12.7200003      -1.41042791E-16
  -12.6000004      -1.98088366E-17
  -12.4799995       1.45803024E-16
  -12.3599997       2.96056412E-16
  -12.2399998       3.60888869E-16
  -12.1199999       2.88444285E-16
  -12.0000000       7.33875169E-17
  -11.8800001      -2.27944031E-16
  -11.7600002      -5.06036647E-16
  -11.6400003      -6.32909000E-16
  -11.5200005      -5.14395274E-16
  -11.3999996      -1.41129718E-16
  -11.2799997       3.85022188E-16
  -11.1599998       8.67372326E-16
  -11.0400000       1.07749653E-15
  -10.9200001       8.48989064E-16
  -10.8000002       1.68138568E-16
  -10.6800003      -7.79427330E-16
  -10.5600004      -1.63799433E-15
  -10.4399996      -1.99343338E-15
  -10.3199997      -1.53943876E-15
  -10.1999998      -2.39936826E-16
  -10.0799999       1.58326001E-15
  -9.96000004       3.29340386E-15
  -9.84000015       4.12576069E-15
  -9.72000027       3.47416683E-15
  -9.60000038       1.18098373E-15
  -9.47999954      -2.28842171E-15
  -9.35999966      -5.88333034E-15
  -9.23999977      -8.24734551E-15
  -9.11999989      -8.17766858E-15
  -9.00000000      -5.11727586E-15
  -8.88000011       5.06720255E-16
  -8.76000023       7.25671761E-15
  -8.64000034       1.30317188E-14
  -8.52000046       1.57129863E-14
  -8.39999962       1.39070740E-14
  -8.27999973       7.52142895E-15
  -8.15999985      -2.05899839E-15
  -8.03999996      -1.22975445E-14
  -7.92000008      -2.02554597E-14
  -7.80000019      -2.35197451E-14
  -7.67999983      -2.09808689E-14
  -7.55999994      -1.31748343E-14
  -7.44000006      -2.06380679E-15
  -7.32000017       9.65250456E-15
  -7.19999981       1.94156486E-14
  -7.07999992       2.55247585E-14
  -6.96000004       2.74159781E-14
  -6.84000015       2.54338719E-14
  -6.71999979       2.02659019E-14
  -6.59999990       1.23805580E-14
  -6.48000002       1.81853379E-15
  -6.36000013      -1.14857075E-14
  -6.23999977      -2.69635761E-14
  -6.11999989      -4.26411090E-14
  -6.00000000      -5.48475958E-14
  -5.88000011      -5.87956401E-14
  -5.76000023      -5.00767335E-14
  -5.63999987      -2.66641940E-14
  -5.51999998       9.34804111E-15
  -5.40000010       5.11307813E-14
  -5.28000021       8.82093674E-14
  -5.15999985       1.09243262E-13
  -5.03999996       1.05771552E-13
  -4.92000008       7.56558715E-14
  -4.80000019       2.48302389E-14
  -4.67999983      -3.36139570E-14
  -4.55999994      -8.31009930E-14
  -4.44000006      -1.09036803E-13
  -4.32000017      -1.04255214E-13
  -4.19999981      -7.23579318E-14
  -4.07999992      -2.73527166E-14
  -3.96000004       1.08252098E-14
  -3.83999991       2.38028608E-14
  -3.72000003       2.82774898E-15
  -3.59999990      -4.56694009E-14
  -3.48000002      -9.96376714E-14
  -3.35999990      -1.27233090E-13
  -3.24000001      -9.78825582E-14
  -3.11999989       4.59451508E-15
  -3.00000000       1.71340454E-13
  -2.88000011       3.64759736E-13
  -2.75999999       5.24549479E-13
  -2.64000010       5.83274640E-13
  -2.51999998       4.87898892E-13
  -2.40000010       2.20979986E-13
  -2.27999997      -1.85711025E-13
  -2.16000009      -6.50981656E-13
  -2.03999996      -1.05965443E-12
  -1.91999996      -1.29101580E-12
  -1.79999995      -1.25303815E-12
  -1.67999995      -9.12391473E-13
  -1.55999994      -3.10548923E-13
  -1.44000006       4.40188467E-13
  -1.32000005       1.18104506E-12
  -1.20000005       1.74539452E-12
  -1.08000004       2.00076501E-12
 -0.959999979       1.88194317E-12
 -0.839999974       1.40553574E-12
 -0.720000029       6.62292812E-13
 -0.600000024      -2.09290335E-13
 -0.479999989      -1.05863354E-12
 -0.360000014      -1.75610297E-12
 -0.239999995      -2.21351171E-12
 -0.119999997      -2.38788329E-12
  -1.11022302E-15  -2.27139509E-12
  0.119999997      -1.87604337E-12
  0.239999995      -1.22325013E-12
  0.360000014      -3.45440012E-13
  0.479999989       7.00291279E-13
  0.600000024       1.81403677E-12
  0.720000029       2.84310683E-12
  0.839999974       3.59238529E-12
  0.959999979       3.86053819E-12
   1.08000004       3.49672960E-12
   1.20000005       2.46151233E-12
   1.32000005       8.69189323E-13
   1.44000006      -1.00927112E-12
   1.55999994      -2.79308391E-12
   1.67999995      -4.08198215E-12
   1.79999995      -4.56682131E-12
   1.91999996      -4.12645178E-12
   2.03999996      -2.87713104E-12
   2.16000009      -1.15331269E-12
   2.27999997       5.79854686E-13
   2.40000010       1.85863716E-12
   2.51999998       2.35691111E-12
   2.64000010       1.98233725E-12
   2.75999999       9.00255077E-13
   2.88000011      -5.22960256E-13
   3.00000000      -1.83734256E-12
   3.11999989      -2.64598651E-12
   3.24000001      -2.71204240E-12
   3.35999990      -1.99806968E-12
   3.48000002      -6.25651332E-13
   3.59999990       1.22485008E-12
   3.72000003       3.42835049E-12
   3.83999991       5.98699606E-12
   3.96000004       9.01561725E-12
   4.07999992       1.26267235E-11
   4.19999981       1.67407511E-11
   4.32000017       2.08820860E-11
   4.44000006       2.40383373E-11
   4.55999994       2.46511821E-11
   4.67999983       2.07729806E-11
   4.80000019       1.03732925E-11
   4.92000008      -8.27046504E-12
   5.03999996      -3.61974721E-11
   5.15999985      -7.35071032E-11
   5.28000021      -1.19298946E-10
   5.40000010      -1.71834880E-10
   5.51999998      -2.28887936E-10
   5.63999987      -2.88190999E-10
   5.76000023      -3.47872064E-10
   5.88000011      -4.06769118E-10
   6.00000000      -4.64555505E-10
   6.11999989      -5.21661936E-10
   6.23999977      -5.79038373E-10
   6.36000013      -6.37838005E-10
   6.48000002      -6.99118208E-10
   6.59999990      -7.63637320E-10
   6.71999979      -8.31782976E-10
   6.84000015      -9.03628672E-10
   6.96000004      -9.79071157E-10
   7.07999992      -1.05799092E-09
   7.19999981      -1.14037901E-09
   7.32000017      -1.22640331E-09
   7.44000006      -1.31641553E-09
   7.55999994      -1.41092682E-09
   7.67999983      -1.51058932E-09
   7.80000019      -1.61621050E-09
   7.92000008      -1.72880243E-09
   8.03999996      -1.84964555E-09
   8.15999985      -1.98032502E-09
   8.27999973      -2.12269646E-09
   8.39999962      -2.27876140E-09
   8.52000046      -2.45045451E-09
   8.64000034      -2.63938760E-09
   8.76000023      -2.84661716E-09
   8.88000011      -3.07249870E-09
   9.00000000      -3.31668737E-09
   9.11999989      -3.57829677E-09
   9.23999977      -3.85619003E-09
   9.35999966      -4.14934576E-09
   9.47999954      -4.45721593E-09
   9.60000038      -4.77999818E-09
   9.72000027      -5.11876985E-09
   9.84000015      -5.47547785E-09
   9.96000004      -5.85279203E-09
   10.0799999      -6.25388319E-09
   10.1999998      -6.68217792E-09
   10.3199997      -7.14113391E-09
   10.4399996      -7.63406938E-09
   10.5600004      -8.16403212E-09
   10.6800003      -8.73371686E-09
   10.8000002      -9.34539024E-09
   10.9200001      -1.00008544E-08
   11.0400000      -1.07014344E-08
   11.1599998      -1.14480647E-08
   11.2799997      -1.22414763E-08
   11.3999996      -1.30825279E-08
   11.5200005      -1.39726284E-08
   11.6400003      -1.49141925E-08
   11.7600002      -1.59110112E-08
   11.8800001      -1.69684142E-08
   12.0000000      -1.80931501E-08
   12.1199999      -1.92929477E-08
   12.2399998      -2.05758273E-08
   12.3599997      -2.19493366E-08
   12.4799995      -2.34198598E-08
   12.6000004      -2.49922198E-08
   12.7200003      -2.66696532E-08
   12.8400002      -2.84541954E-08
   12.9600000      -3.03473087E-08
   13.0799999      -3.23506377E-08
   13.1999998      -3.44665843E-08
   13.3199997      -3.66986193E-08
   13.4399996      -3.90512049E-08
   13.5600004      -4.15295034E-08
   13.6800003      -4.41389787E-08
   13.8000002      -4.68851447E-08
   13.9200001      -4.97736572E-08
   14.0400000      -5.28107051E-08
   14.1599998      -5.60036142E-08
   14.2799997      -5.93614509E-08
   14.3999996      -6.28952677E-08
   14.5200005      -6.66178295E-08
   14.6400003      -7.05428462E-08
   14.7600002      -7.46837614E-08
   14.8800001      -7.90525121E-08
   15.0000000      -8.36587262E-08
   15.1199999      -8.85094806E-08
   15.2399998      -9.36099909E-08
   15.3599997      -9.89648044E-08
   15.4799995      -1.04579470E-07
   15.6000004      -1.10461876E-07
   15.7200003      -1.16623148E-07
   15.8400002      -1.23077541E-07
   15.9600000      -1.29841567E-07
   16.0799999      -1.36932556E-07
   16.2000008      -1.44367036E-07
   16.3199997      -1.52159643E-07
   16.4400005      -1.60322699E-07
   16.5599995      -1.68866478E-07
   16.6800003      -1.77800402E-07
   16.7999992      -1.87134304E-07
   16.9200001      -1.96879554E-07
   17.0400009      -2.07049851E-07
   17.1599998      -2.17661082E-07
   17.2800007      -2.28730698E-07
   17.3999996      -2.40276592E-07
   17.5200005      -2.52316056E-07
   17.6399994      -2.64865150E-07
   17.7600002      -2.77938511E-07
   17.8799992      -2.91549952E-07
   18.0000000      -3.05713286E-07
   18.1200008      -3.20443519E-07
   18.2399998      -3.35757647E-07
   18.3600006      -3.51675112E-07
   18.4799995      -3.68217570E-07
   18.6000004      -3.85408157E-07
   18.7199993      -4.03270292E-07
   18.8400002      -4.21826257E-07
   18.9599991      -4.41096034E-07
   19.0799999      -4.61096533E-07
   19.2000008      -4.81841028E-07
   19.3199997      -5.03339834E-07
   19.4400005      -5.25600797E-07
   19.5599995      -5.48630737E-07
   19.6800003      -5.72437045E-07
   19.7999992      -5.97028532E-07
   19.9200001      -6.22417019E-07
   20.0400009      -6.48617970E-07
   20.1599998      -6.75649972E-07
   20.2800007      -7.03534909E-07
   20.3999996      -7.32296314E-07
   20.5200005      -7.61958518E-07
   20.6399994      -7.92544654E-07
   20.7600002      -8.24075642E-07
   20.8799992      -8.56568818E-07
   21.0000000      -8.90037541E-07
   21.1200008      -9.24491076E-07
   21.2399998      -9.59934823E-07
   21.3600006      -9.96371682E-07
   21.4799995      -1.03380296E-06
   21.6000004      -1.07222968E-06
   21.7199993      -1.11165366E-06
   21.8400002      -1.15207763E-06
   21.9599991      -1.19350625E-06
   22.0799999      -1.23594509E-06
   22.2000008      -1.27940052E-06
   22.3199997      -1.32387925E-06
   22.4400005      -1.36938752E-06
   22.5599995      -1.41593046E-06
   22.6800003      -1.46351147E-06
   22.7999992      -1.51213146E-06
   22.9200001      -1.56178885E-06
   23.0400009      -1.61247829E-06
   23.1599998      -1.66419125E-06
   23.2800007      -1.71691590E-06
   23.3999996      -1.77063725E-06
   23.5200005      -1.82533802E-06
   23.6399994      -1.88099989E-06
   23.7600002      -1.93760457E-06
   23.8799992      -1.99513443E-06
   24.0000000      -2.05357264E-06
   24.1200008      -2.11290239E-06
   24.2399998      -2.17310594E-06
   24.3600006      -2.23416237E-06
   24.4799995      -2.29604802E-06
   24.6000004      -2.35873540E-06
   24.7199993      -2.42219312E-06
   24.8400002      -2.48638753E-06
   24.9599991      -2.55128293E-06
   25.0799999      -2.61684477E-06
   25.2000008      -2.68303984E-06
   25.3199997      -2.74983631E-06
   25.4400005      -2.81720372E-06
   25.5599995      -2.88511001E-06
   25.6800003      -2.95352038E-06
   25.7999992      -3.02239391E-06
   25.9200001      -3.09168422E-06
   26.0400009      -3.16133878E-06
   26.1599998      -3.23129962E-06
   26.2800007      -3.30150669E-06
   26.3999996      -3.37189772E-06
   26.5200005      -3.44241221E-06
   26.6399994      -3.51299263E-06
   26.7600002      -3.58358398E-06
   26.8799992      -3.65413302E-06
   27.0000000      -3.72458862E-06
   27.1200008      -3.79489848E-06
   27.2399998      -3.86500915E-06
   27.3600006      -3.93486516E-06
   27.4799995      -4.00440695E-06
   27.6000004      -4.07357356E-06
   27.7199993      -4.14229862E-06
   27.8400002      -4.21051391E-06
   27.9599991      -4.27814621E-06
   28.0799999      -4.34512413E-06
   28.2000008      -4.41137399E-06
   28.3199997      -4.47682487E-06
   28.4400005      -4.54141264E-06
   28.5599995      -4.60507727E-06
   28.6800003      -4.66776646E-06
   28.7999992      -4.72943248E-06
   28.9200001      -4.79003165E-06
   29.0400009      -4.84951988E-06
   29.1599998      -4.90785123E-06
   29.2800007      -4.96497705E-06
   29.3999996      -5.02084595E-06
   29.5200005      -5.07540244E-06
   29.6399994      -5.12859242E-06
   29.7600002      -5.18036177E-06
   29.8799992      -5.23065773E-06
   30.0000000      -5.27942939E-06
   30.1200008      -5.32662943E-06
   30.2399998      -5.37221331E-06
   30.3600006      -5.41613781E-06
   30.4799995      -5.45836247E-06
   30.6000004      -5.49885181E-06
   30.7199993      -5.53757354E-06
   30.8400002      -5.57450176E-06
   30.9599991      -5.60961735E-06
   31.0799999      -5.64290849E-06
   31.2000008      -5.67437246E-06
   31.3199997      -5.70401016E-06
   31.4400005      -5.73183252E-06
   31.5599995      -5.75785589E-06
   31.6800003      -5.78209983E-06
   31.7999992      -5.80459118E-06
   31.9200001      -5.82535904E-06
   32.0400009      -5.84443842E-06
   32.1599998      -5.86186752E-06
   32.2799988      -5.87768909E-06
   32.4000015      -5.89195088E-06
   32.5200005      -5.90470472E-06
   32.6399994      -5.91600747E-06
   32.7599983      -5.92592232E-06
   32.8800011      -5.93451568E-06
   33.0000000      -5.94186076E-06
   33.1199989      -5.94803760E-06
   33.2400017      -5.95313395E-06
   33.3600006      -5.95724987E-06
   33.4799995      -5.96049813E-06
   33.5999985      -5.96300288E-06
   33.7200012      -5.96490372E-06
   33.8400002      -5.96634936E-06
   33.9599991      -5.96749715E-06
   34.0800018      -5.96850759E-06
   34.2000008      -5.96954533E-06
   34.3199997      -5.97077496E-06
   34.4399986      -5.97236158E-06
   34.5600014      -5.97447797E-06
   34.6800003      -5.97730468E-06
   34.7999992      -5.98103816E-06
   34.9199982      -5.98588940E-06
   35.0400009      -5.99208306E-06
   35.1599998      -5.99985697E-06
   35.2799988      -6.00945532E-06
   35.4000015      -6.02112823E-06
   35.5200005      -6.03512399E-06
   35.6399994      -6.05169453E-06
   35.7599983      -6.07109587E-06
   35.8800011      -6.09358813E-06
   36.0000000      -6.11944233E-06
   36.1199989      -6.14893952E-06
   36.2400017      -6.18237618E-06
   36.3600006      -6.22006019E-06
   36.4799995      -6.26231395E-06
   36.5999985      -6.30946852E-06
   36.7200012      -6.36186360E-06
   36.8400002      -6.41984525E-06
   36.9599991      -6.48376226E-06
   37.0800018      -6.55396889E-06
   37.2000008      -6.63081573E-06
   37.3199997      -6.71465614E-06
   37.4399986      -6.80584208E-06
   37.5600014      -6.90472689E-06
   37.6800003      -7.01166800E-06
   37.7999992      -7.12702922E-06
   37.9199982      -7.25118389E-06
   38.0400009      -7.38451945E-06
   38.1599998      -7.52743790E-06
   38.2799988      -7.68035625E-06
   38.4000015      -7.84370332E-06
   38.5200005      -8.01791793E-06
   38.6399994      -8.20343666E-06
   38.7599983      -8.40069606E-06
   38.8800011      -8.61012268E-06
   39.0000000      -8.83213215E-06
   39.1199989      -9.06713558E-06
   39.2400017      -9.31553495E-06
   39.3600006      -9.57773682E-06
   39.4799995      -9.85414954E-06
   39.5999985      -1.01451897E-05
   39.7200012      -1.04512874E-05
   39.8400002      -1.07728847E-05
   39.9599991      -1.11104337E-05
   40.0800018      -1.14643926E-05
   40.2000008      -1.18352200E-05
   40.3199997      -1.22233723E-05
   40.4399986      -1.26292998E-05
   40.5600014      -1.30534499E-05
   40.6800003      -1.34962647E-05
   40.7999992      -1.39581798E-05
   40.9199982      -1.44396290E-05
   41.0400009      -1.49410444E-05
   41.1599998      -1.54628524E-05
   41.2799988      -1.60054642E-05
   41.4000015      -1.65692873E-05
   41.5200005      -1.71547072E-05
   41.6399994      -1.77620987E-05
   41.7599983      -1.83918182E-05
   41.8800011      -1.90442206E-05
   42.0000000      -1.97196514E-05
   42.1199989      -2.04184435E-05
   42.2400017      -2.11409370E-05
   42.3600006      -2.18874575E-05
   42.4799995      -2.26583197E-05
   42.5999985      -2.34538329E-05
   42.7200012      -2.42742826E-05
   42.8400002      -2.51199490E-05
   42.9599991      -2.59910976E-05
   43.0800018      -2.68879885E-05
   43.2000008      -2.78108528E-05
   43.3199997      -2.87599178E-05
   43.4399986      -2.97353708E-05
   43.5600014      -3.07373812E-05
   43.6800003      -3.17660961E-05
   43.7999992      -3.28216338E-05
   43.9199982      -3.39040926E-05
   44.0400009      -3.50135670E-05
   44.1599998      -3.61501334E-05
   44.2799988      -3.73138500E-05
   44.4000015      -3.85047642E-05
   44.5200005      -3.97228832E-05
   44.6399994      -4.09681852E-05
   44.7599983      -4.22406119E-05
   44.8800011      -4.35400798E-05
   45.0000000      -4.48664723E-05
   45.1199989      -4.62196404E-05
   45.2400017      -4.75994348E-05
   45.3600006      -4.90056736E-05
   45.4799995      -5.04381605E-05
   45.5999985      -5.18966699E-05
   45.7200012      -5.33809289E-05
   45.8400002      -5.48906464E-05
   45.9599991      -5.64254660E-05
   46.0800018      -5.79849911E-05
   46.2000008      -5.95687779E-05
   46.3199997      -6.11763389E-05
   46.4399986      -6.28071357E-05
   46.5600014      -6.44606043E-05
   46.6800003      -6.61361264E-05
   46.7999992      -6.78330762E-05
   46.9199982      -6.95507842E-05
   47.0400009      -7.12885521E-05
   47.1599998      -7.30456377E-05
   47.2799988      -7.48212478E-05
   47.4000015      -7.66145749E-05
   47.5200005      -7.84247313E-05
   47.6399994      -8.02508221E-05
   47.7599983      -8.20918576E-05
   47.8800011      -8.39468703E-05
   48.0000000      -8.58148123E-05
   48.1199989      -8.76945778E-05
   48.2400017      -8.95850171E-05
   48.3600006      -9.14849297E-05
   48.4799995      -9.33930569E-05
   48.5999985      -9.53081035E-05
   48.7200012      -9.72287016E-05
   48.8400002      -9.91534689E-05
   48.9599991      -1.01080986E-04
   49.0800018      -1.03009799E-04
   49.2000008      -1.04938408E-04
   49.3199997      -1.06865293E-04
   49.4399986      -1.08788874E-04
   49.5600014      -1.10707508E-04
   49.6800003      -1.12619549E-04
   49.7999992      -1.14523231E-04
   49.9199982      -1.16416770E-04
   50.0400009      -1.18298318E-04
   50.1599998      -1.20165991E-04
   50.2799988      -1.22017846E-04
   50.4000015      -1.23851903E-04
   50.5200005      -1.25666164E-04
   50.6399994      -1.27458567E-04
   50.7599983      -1.29227032E-04
   50.8800011      -1.30969463E-04
   51.0000000      -1.32683723E-04
   51.1199989      -1.34367612E-04
   51.2400017      -1.36018905E-04
   51.3600006      -1.37635361E-04
   51.4799995      -1.39214695E-04
   51.5999985      -1.40754579E-04
   51.7200012      -1.42252597E-04
   51.8400002      -1.43706333E-04
   51.9599991      -1.45113372E-04
   52.0800018      -1.46471255E-04
   52.2000008      -1.47777479E-04
   52.3199997      -1.49029569E-04
   52.4399986      -1.50225023E-04
   52.5600014      -1.51361324E-04
   52.6800003      -1.52435910E-04
   52.7999992      -1.53446221E-04
   52.9199982      -1.54389680E-04
   53.0400009      -1.55263682E-04
   53.1599998      -1.56065682E-04
   53.2799988      -1.56793089E-04
   53.4000015      -1.57443312E-04
   53.5200005      -1.58013747E-04
   53.6399994      -1.58501833E-04
   53.7599983      -1.58904979E-04
   53.8800011      -1.59220595E-04
   54.0000000      -1.59446121E-04
   54.1199989      -1.59578951E-04
   54.2400017      -1.59616553E-04
   54.3600006      -1.59556294E-04
   54.4799995      -1.59395640E-04
   54.5999985      -1.59132062E-04
   54.7200012      -1.58763040E-04
   54.8400002      -1.58286159E-04
   54.9599991      -1.57698989E-04
   55.0800018      -1.56999202E-04
   55.2000008      -1.56184455E-04
   55.3199997      -1.55252463E-04
   55.4399986      -1.54200970E-04
   55.5600014      -1.53027751E-04
   55.6800003      -1.51730637E-04
   55.7999992      -1.50307489E-04
   55.9199982      -1.48756255E-04
   56.0400009      -1.47074956E-04
   56.1599998      -1.45261627E-04
   56.2799988      -1.43314377E-04
   56.4000015      -1.41231401E-04
   56.5200005      -1.39010939E-04
   56.6399994      -1.36651317E-04
   56.7599983      -1.34150934E-04
   56.8800011      -1.31508248E-04
   57.0000000      -1.28721862E-04
   57.1199989      -1.25790466E-04
   57.2400017      -1.22712809E-04
   57.3600006      -1.19487777E-04
   57.4799995      -1.16114294E-04
   57.5999985      -1.12591384E-04
   57.7200012      -1.08918153E-04
   57.8400002      -1.05093779E-04
   57.9599991      -1.01117555E-04
   58.0800018      -9.69888715E-05
   58.2000008      -9.27072542E-05
   58.3199997      -8.82723834E-05
   58.4399986      -8.36840773E-05
   58.5600014      -7.89423066E-05
   58.6800003      -7.40471587E-05
   58.7999992      -6.89988592E-05
   58.9199982      -6.37977064E-05
   59.0400009      -5.84441186E-05
   59.1599998      -5.29386271E-05
   59.2799988      -4.72818792E-05
   59.4000015      -4.14746828E-05
   59.5200005      -3.55180018E-05
   59.6399994      -2.94129622E-05
   59.7599983      -2.31608446E-05
   59.8800011      -1.67630678E-05
   60.0000000      -1.02212070E-05
   60.1199989      -3.53697124E-06
   60.2400017       3.28777628E-06
   60.3600006       1.02510166E-05
   60.4799995       1.73505723E-05
   60.5999985       2.45841020E-05
   60.7200012       3.19491010E-05
   60.8400002       3.94429117E-05
   60.9599991       4.70627492E-05
   61.0800018       5.48056814E-05
   61.2000008       6.26686451E-05
   61.3199997       7.06483988E-05
   61.4399986       7.87415120E-05
   61.5600014       8.69443611E-05
   61.6800003       9.52531700E-05
   61.7999992       1.03663981E-04
   61.9199982       1.12172660E-04
   62.0400009       1.20775017E-04
   62.1599998       1.29466716E-04
   62.2799988       1.38243224E-04
   62.4000015       1.47099956E-04
   62.5200005       1.56032067E-04
   62.6399994       1.65034595E-04
   62.7599983       1.74102403E-04
   62.8800011       1.83230120E-04
   63.0000000       1.92412277E-04
   63.1199989       2.01643241E-04
   63.2400017       2.10917264E-04
   63.3600006       2.20228423E-04
   63.4799995       2.29570738E-04
   63.5999985       2.38938082E-04
   63.7200012       2.48324213E-04
   63.8400002       2.57722771E-04
   63.9599991       2.67127325E-04
   64.0800018       2.76531151E-04
   64.1999969       2.85927585E-04
   64.3199997       2.95309699E-04
   64.4400024       3.04670684E-04
   64.5599976       3.14003410E-04
   64.6800003       3.23300861E-04
   64.8000031       3.32555821E-04
   64.9199982       3.41761071E-04
   65.0400009       3.50909220E-04
   65.1600037       3.59992904E-04
   65.2799988       3.69004585E-04
   65.4000015       3.77936754E-04
   65.5199966       3.86781845E-04
   65.6399994       3.95532290E-04
   65.7600021       4.04180493E-04
   65.8799973       4.12718859E-04
   66.0000000       4.21139819E-04
   66.1200027       4.29435633E-04
   66.2399979       4.37598734E-04
   66.3600006       4.45621466E-04
   66.4800034       4.53496148E-04
   66.5999985       4.61215124E-04
   66.7200012       4.68770828E-04
   66.8399963       4.76155750E-04
   66.9599991       4.83362499E-04
   67.0800018       4.90383711E-04
   67.1999969       4.97212168E-04
   67.3199997       5.03840682E-04
   67.4400024       5.10262209E-04
   67.5599976       5.16469649E-04
   67.6800003       5.22456074E-04
   67.8000031       5.28214849E-04
   67.9199982       5.33739396E-04
   68.0400009       5.39023138E-04
   68.1600037       5.44059905E-04
   68.2799988       5.48843702E-04
   68.4000015       5.53368533E-04
   68.5199966       5.57628635E-04
   68.6399994       5.61618363E-04
   68.7600021       5.65332361E-04
   68.8799973       5.68765448E-04
   69.0000000       5.71912678E-04
   69.1200027       5.74769452E-04
   69.2399979       5.77331346E-04
   69.3600006       5.79594111E-04
   69.4800034       5.81553904E-04
   69.5999985       5.83207060E-04
   69.7200012       5.84550260E-04
   69.8399963       5.85580303E-04
   69.9599991       5.86294511E-04
   70.0800018       5.86690265E-04
   70.1999969       5.86765411E-04
   70.3199997       5.86518261E-04
   70.4400024       5.85947360E-04
   70.5599976       5.85051428E-04
   70.6800003       5.83829707E-04
   70.8000031       5.82281617E-04
   70.9199982       5.80406981E-04
   71.0400009       5.78205916E-04
   71.1600037       5.75679005E-04
   71.2799988       5.72827004E-04
   71.4000015       5.69651136E-04
   71.5199966       5.66153147E-04
   71.6399994       5.62335073E-04
   71.7600021       5.58199186E-04
   71.8799973       5.53748338E-04
   72.0000000       5.48985612E-04
   72.1200027       5.43914502E-04
   72.2399979       5.38538676E-04
   72.3600006       5.32862323E-04
   72.4800034       5.26889984E-04
   72.5999985       5.20626840E-04
   72.7200012       5.14078070E-04