  -30.0000000       0.00000000    
  -29.8799992       0.00000000    
  -29.7600002       0.00000000    
  -29.6399994       0.00000000    
  -29.5200005       0.00000000    
  -29.3999996       0.00000000    
  -29.2800007       0.00000000    
  -29.1599998       0.00000000    
  -29.0400009       0.00000000    
  -28.9200001      -8.36575183E-43
  -28.7999992       4.65049622E-39
  -28.6800003       5.53016329E-38
  -28.5599995       2.94436596E-37
  -28.4400005       8.22079883E-37
  -28.3199997       6.30327905E-37
  -28.2000008      -4.51011942E-36
  -28.0799999      -2.12556944E-35
  -27.9599991      -4.64247345E-35
  -27.8400002      -5.02367370E-35
  -27.7199993      -2.91378733E-35
  -27.6000004      -2.89945738E-34
  -27.4799995      -2.00713842E-33
  -27.3600006      -7.33584735E-33
  -27.2399998      -1.68394885E-32
  -27.1200008      -2.11108926E-32
  -27.0000000       1.27261472E-32
  -26.8799992       1.45300659E-31
  -26.7600002       4.23310985E-31
  -26.6399994       7.44162027E-31
  -26.5200005       6.27882408E-31
  -26.3999996      -9.36639823E-31
  -26.2800007      -5.12590392E-30
  -26.1599998      -1.17561013E-29
  -26.0400009      -1.63285065E-29
  -25.9200001      -6.95678622E-30
  -25.7999992       3.45456853E-29
  -25.6800003       1.20235132E-28
  -25.5599995       2.26404500E-28
  -25.4400005       2.52699318E-28
  -25.3199997       1.99177079E-30
  -25.2000008      -7.54692549E-28
  -25.0799999      -2.05510130E-27
  -24.9599991      -3.35648991E-27
  -24.8400002      -3.15419177E-27
  -24.7199993       9.44838986E-28
  -24.6000004       1.10512087E-26
  -24.4799995       2.62955628E-26
  -24.3600006       3.91537367E-26
  -24.2399998       3.31315849E-26
  -24.1200008      -1.39856903E-26
  -24.0000000      -1.16914104E-25
  -23.8799992      -2.59038551E-25
  -23.7600002      -3.66351047E-25
  -23.6399994      -2.99761671E-25
  -23.5200005       1.05501284E-25
  -23.3999996       9.32350562E-25
  -23.2800007       2.01897688E-24
  -23.1599998       2.81260704E-24
  -23.0400009       2.37346572E-24
  -22.9200001      -3.19983356E-25
  -22.7999992      -5.69566764E-24
  -22.6800003      -1.26844053E-23
  -22.5599995      -1.80272592E-23
  -22.4400005      -1.64739590E-23
  -22.3199997      -2.51981816E-24
  -22.2000008       2.61762792E-23
  -22.0799999       6.45522670E-23
  -21.9599991       9.71498234E-23
  -21.8400002       9.92178759E-23
  -21.7199993       4.43215914E-23
  -21.6000004      -8.13522780E-23
  -21.4799995      -2.61624646E-22
  -21.3600006      -4.37701783E-22
  -21.2399998      -5.10488073E-22
  -21.1200008      -3.66200945E-22
  -21.0000000       7.36993995E-23
  -20.8799992       7.89254806E-22
  -20.7600002       1.60932663E-21
  -20.6399994       2.20130876E-21
  -20.5200005       2.13187688E-21
  -20.3999996       1.00958525E-21
  -20.2800007      -1.31094859E-21
  -20.1599998      -4.52033444E-21
  -20.0400009      -7.72838885E-21
  -19.9200001      -9.51724205E-21
  -19.7999992      -8.24620392E-21
  -19.6800003      -2.61850728E-21
  -19.5599995       7.57702207E-21
  -19.4400005       2.07509727E-20
  -19.3199997       3.31280859E-20
  -19.2000008       3.90375967E-20
  -19.0799999       3.21573119E-20
  -18.9599991       7.76626952E-21
  -18.8400002      -3.43275398E-20
  -18.7199993      -8.70141724E-20
  -18.6000004      -1.34547570E-19
  -18.4799995      -1.54108556E-19
  -18.3600006      -1.21350097E-19
  -18.2399998      -1.98991431E-20
  -18.1200008       1.47007314E-19
  -18.0000000       3.46645830E-19
  -17.8799992       5.14111672E-19
  -17.7600002       5.62157528E-19
  -17.6399994       4.06316804E-19
  -17.5200005       2.68690437E-21
  -17.3999996      -6.11487167E-19
  -17.2800007      -1.29098182E-18
  -17.1599998      -1.78879028E-18
  -17.0400009      -1.80987552E-18
  -16.9200001      -1.11305599E-18
  -16.7999992       3.59898426E-19
  -16.6800003       2.37165089E-18
  -16.5599995       4.35091088E-18
  -16.4400005       5.48033998E-18
  -16.3199997       4.93057755E-18
  -16.2000008       2.20373013E-18
  -16.0799999      -2.51575734E-18
  -15.9600000      -8.15287327E-18
  -15.8400002      -1.28270269E-17
  -15.7200003      -1.43129411E-17
  -15.6000004      -1.08272003E-17
  -15.4799995      -1.92680805E-18
  -15.3599997       1.08244532E-17
  -15.2399998       2.37906822E-17
  -15.1199999       3.20372643E-17
  -15.0000000       3.08974888E-17
  -14.8800001       1.79276988E-17
  -14.7600002      -5.45077696E-18
  -14.6400003      -3.34046997E-17
  -14.5200005      -5.67794904E-17
  -14.3999996      -6.58208525E-17
  -14.2799997      -5.38224918E-17
  -14.1599998      -2.04180882E-17
  -14.0400000       2.69277465E-17
  -13.9200001       7.42432782E-17
  -13.8000002       1.05222244E-16
  -13.6800003       1.07061431E-16
  -13.5600004       7.58170919E-17
  -13.4399996       1.89281539E-17
  -13.3199997      -4.66356124E-17
  -13.1999998      -1.00458657E-16
  -13.0799999      -1.26888209E-16
  -12.9600000      -1.21862485E-16
  -12.8400002      -9.48243194E-17
  -12.7200003      -6.38571720E-17
  -12.6000004      -4.51691503E-17
  -12.4799995      -4.12556661E-17
  -12.3599997      -3.40025561E-17
  -12.2399998       1.16370358E-17
  -12.1199999       1.31390771E-16
  -12.0000000       3.36649910E-16
  -11.8800001       5.90418175E-16
  -11.7600002       7.97262085E-16
  -11.6400003       8.18619809E-16
  -11.5200005       5.17278786E-16
  -11.3999996      -1.77141258E-16
  -11.2799997      -1.20247868E-15
  -11.1599998      -2.32686896E-15
  -11.0400000      -3.16737298E-15
  -10.9200001      -3.27812063E-15
  -10.8000002      -2.29799594E-15
  -10.6800003      -1.20540332E-16
  -10.5600004       2.97226635E-15
  -10.4399996       6.27510934E-15
  -10.3199997       8.76725941E-15
  -10.1999998       9.36622436E-15
  -10.0799999       7.27676179E-15
  -9.96000004       2.33680085E-15
  -9.84000015      -4.76132043E-15
  -9.72000027      -1.24795804E-14
  -9.60000038      -1.87200346E-14
  -9.47999954      -2.13479086E-14
  -9.35999966      -1.88239605E-14
  -9.23999977      -1.07605228E-14
  -9.11999989       1.78496142E-15
  -9.00000000       1.64008499E-14
  -8.88000011       2.98054428E-14
  -8.76000023       3.86075347E-14
  -8.64000034       4.01344844E-14
  -8.52000046       3.30959760E-14
  -8.39999962       1.79095952E-14
  -8.27999973      -3.36816574E-15
  -8.15999985      -2.74321750E-14
  -8.03999996      -5.02800452E-14
  -7.92000008      -6.77583193E-14
  -7.80000019      -7.60134279E-14
  -7.67999983      -7.18753670E-14
  -7.55999994      -5.32942729E-14
  -7.44000006      -1.99496994E-14
  -7.32000017       2.59675213E-14
  -7.19999981       7.90092072E-14
  -7.07999992       1.30172660E-13
  -6.96000004       1.67546071E-13
  -6.84000015       1.78246239E-13
  -6.71999979       1.51612392E-13
  -6.59999990       8.30728851E-14
  -6.48000002      -2.24135624E-14
  -6.36000013      -1.48698179E-13
  -6.23999977      -2.69727708E-13
  -6.11999989      -3.54246797E-13
  -6.00000000      -3.73324852E-13
  -5.88000011      -3.08995695E-13
  -5.76000023      -1.61523166E-13
  -5.63999987       4.72663494E-14
  -5.51999998       2.76346112E-13
  -5.40000010       4.73766913E-13
  -5.28000021       5.89205713E-13
  -5.15999985       5.87549703E-13
  -5.03999996       4.59558715E-13
  -4.92000008       2.26148771E-13
  -4.80000019      -6.54673459E-14
  -4.67999983      -3.53126165E-13
  -4.55999994      -5.75500856E-13
  -4.44000006      -6.87750963E-13
  -4.32000017      -6.72357135E-13
  -4.19999981      -5.41909128E-13
  -4.07999992      -3.33184625E-13
  -3.96000004      -9.46885663E-14
  -3.83999991       1.28054753E-13
  -3.72000003       3.04515527E-13
  -3.59999990       4.24617129E-13
  -3.48000002       4.96213205E-13
  -3.35999990       5.36090053E-13
  -3.24000001       5.58352952E-13
  -3.11999989       5.64974987E-13
  -3.00000000       5.42420980E-13
  -2.88000011       4.65918265E-13
  -2.75999999       3.09995790E-13
  -2.64000010       6.14468939E-14
  -2.51999998      -2.70191476E-13
  -2.40000010      -6.48797530E-13
  -2.27999997      -1.01631962E-12
  -2.16000009      -1.30478885E-12
  -2.03999996      -1.45196160E-12
  -1.91999996      -1.41565188E-12
  -1.79999995      -1.18242785E-12
  -1.67999995      -7.68538933E-13
  -1.55999994      -2.13876537E-13
  -1.44000006       4.27721145E-13
  -1.32000005       1.09745177E-12
  -1.20000005       1.73631628E-12
  -1.08000004       2.28467440E-12
 -0.959999979       2.67874828E-12
 -0.839999974       2.84864320E-12
 -0.720000029       2.72291521E-12
 -0.600000024       2.24262232E-12
 -0.479999989       1.38358801E-12
 -0.360000014       1.80722651E-13
 -0.239999995      -1.25540409E-12
 -0.119999997      -2.73996060E-12
  -1.11022302E-15  -4.03970694E-12
  0.119999997      -4.92227136E-12
  0.239999995      -5.21854652E-12
  0.360000014      -4.87998791E-12
  0.479999989      -4.00941086E-12
  0.600000024      -2.84768520E-12
  0.720000029      -1.70986337E-12
  0.839999974      -8.80392005E-13
  0.959999979      -4.93688749E-13
   1.08000004      -4.37779506E-13
   1.20000005      -3.20051521E-13
   1.32000005       4.77143336E-13
   1.44000006       2.64586551E-12
   1.55999994       6.73036106E-12
   1.67999995       1.28830713E-11
   1.79999995       2.06641891E-11
   1.91999996       2.89480766E-11
   2.03999996       3.59786020E-11
   2.16000009       3.95791039E-11
   2.27999997       3.74807858E-11
   2.40000010       2.76978978E-11
   2.51999998       8.86100394E-12
   2.64000010      -1.95733377E-11
   2.75999999      -5.72871993E-11
   2.88000011      -1.03245100E-10
   3.00000000      -1.55974636E-10
   3.11999989      -2.13907433E-10
   3.24000001      -2.75694023E-10
   3.35999990      -3.40422024E-10
   3.48000002      -4.07703343E-10
   3.59999990      -4.77639261E-10
   3.72000003      -5.50706702E-10
   3.83999991      -6.27624064E-10
   3.96000004      -7.09245163E-10
   4.07999992      -7.96502864E-10
   4.19999981      -8.90391261E-10
   4.32000017      -9.91950522E-10
   4.44000006      -1.10221687E-09
   4.55999994      -1.22211663E-09
   4.67999983      -1.35231781E-09
   4.80000019      -1.49308865E-09
   4.92000008      -1.64422342E-09
   5.03999996      -1.80509829E-09
   5.15999985      -1.97487449E-09
   5.28000021      -2.15282525E-09
   5.40000010      -2.33870856E-09
   5.51999998      -2.53308574E-09
   5.63999987      -2.73749046E-09
   5.76000023      -2.95438807E-09
   5.88000011      -3.18693094E-09
   6.00000000      -3.43857187E-09
   6.11999989      -3.71263753E-09
   6.23999977      -4.01197164E-09
   6.36000013      -4.33873026E-09
   6.48000002      -4.69435202E-09
   6.59999990      -5.07969489E-09
   6.71999979      -5.49525403E-09
   6.84000015      -5.94141270E-09
   6.96000004      -6.41865583E-09
   7.07999992      -6.92773616E-09
   7.19999981      -7.46980611E-09
   7.32000017      -8.04653411E-09
   7.44000006      -8.66023520E-09
   7.55999994      -9.31397715E-09
   7.67999983      -1.00116324E-08
   7.80000019      -1.07577991E-08
   7.92000008      -1.15575540E-08
   8.03999996      -1.24160371E-08
   8.15999985      -1.33379485E-08
   8.27999973      -1.43270888E-08
   8.39999962      -1.53860977E-08
   8.52000046      -1.65165268E-08
   8.64000034      -1.77192607E-08
   8.76000023      -1.89952765E-08
   8.88000011      -2.03465049E-08
   9.00000000      -2.17766374E-08
   9.11999989      -2.32916086E-08
   9.23999977      -2.48996663E-08
   9.35999966      -2.66109783E-08
   9.47999954      -2.84369062E-08
   9.60000038      -3.03891561E-08
   9.72000027      -3.24790150E-08
   9.84000015      -3.47168836E-08
   9.96000004      -3.71121374E-08
   10.0799999      -3.96733277E-08
   10.1999998      -4.24085158E-08
   10.3199997      -4.53256774E-08
   10.4399996      -4.84329554E-08
   10.5600004      -5.17387626E-08
   10.6800003      -5.52517392E-08
   10.8000002      -5.89807563E-08
   10.9200001      -6.29349799E-08
   11.0400000      -6.71241409E-08
   11.1599998      -7.15589934E-08
   11.2799997      -7.62518013E-08
   11.3999996      -8.12166263E-08
   11.5200005      -8.64693916E-08
   11.6400003      -9.20274559E-08
   11.7600002      -9.79089165E-08
   11.8800001      -1.04131729E-07
   12.0000000      -1.10712975E-07
   12.1199999      -1.17668591E-07
   12.2399998      -1.25013699E-07
   12.3599997      -1.32763461E-07
   12.4799995      -1.40934347E-07
   12.6000004      -1.49545357E-07
   12.7200003      -1.58618832E-07
   12.8400002      -1.68180648E-07
   12.9600000      -1.78259441E-07
   13.0799999      -1.88885352E-07
   13.1999998      -2.00088579E-07
   13.3199997      -2.11897969E-07
   13.4399996      -2.24340383E-07
   13.5600004      -2.37440901E-07
   13.6800003      -2.51223639E-07
   13.8000002      -2.65713226E-07
   13.9200001      -2.80936177E-07
   14.0400000      -2.96921627E-07
   14.1599998      -3.13701804E-07
   14.2799997      -3.31311156E-07
   14.3999996      -3.49785608E-07
   14.5200005      -3.69161256E-07
   14.6400003      -3.89473911E-07
   14.7600002      -4.10759014E-07
   14.8800001      -4.33052321E-07
   15.0000000      -4.56391234E-07
   15.1199999      -4.80816027E-07
   15.2399998      -5.06370782E-07
   15.3599997      -5.33103616E-07
   15.4799995      -5.61065860E-07
   15.6000004      -5.90310947E-07
   15.7200003      -6.20892592E-07
   15.8400002      -6.52863093E-07
   15.9600000      -6.86272642E-07
   16.0799999      -7.21168817E-07
   16.2000008      -7.57597036E-07
   16.3199997      -7.95601750E-07
   16.4400005      -8.35227127E-07
   16.5599995      -8.76518698E-07
   16.6800003      -9.19523700E-07
   16.7999992      -9.64291189E-07
   16.9200001      -1.01087244E-06
   17.0400009      -1.05932099E-06
   17.1599998      -1.10969199E-06
   17.2800007      -1.16204239E-06
   17.3999996      -1.21643188E-06
   17.5200005      -1.27292196E-06
   17.6399994      -1.33157653E-06
   17.7600002      -1.39246106E-06
   17.8799992      -1.45564286E-06
   18.0000000      -1.52118946E-06
   18.1200008      -1.58916771E-06
   18.2399998      -1.65964332E-06
   18.3600006      -1.73267927E-06
   18.4799995      -1.80833581E-06
   18.6000004      -1.88667013E-06
   18.7199993      -1.96773703E-06
   18.8400002      -2.05158904E-06
   18.9599991      -2.13827798E-06
   19.0799999      -2.22785593E-06
   19.2000008      -2.32037564E-06
   19.3199997      -2.41589237E-06
   19.4400005      -2.51446249E-06
   19.5599995      -2.61614468E-06
   19.6800003      -2.72099760E-06
   19.7999992      -2.82907877E-06
   19.9200001      -2.94044321E-06
   20.0400009      -3.05514118E-06
   20.1599998      -3.17321860E-06
   20.2800007      -3.29471618E-06
   20.3999996      -3.41967052E-06
   20.5200005      -3.54811709E-06
   20.6399994      -3.68009069E-06
   20.7600002      -3.81562722E-06
   20.8799992      -3.95476718E-06
   21.0000000      -4.09755103E-06
   21.1200008      -4.24402197E-06
   21.2399998      -4.39422092E-06
   21.3600006      -4.54818519E-06
   21.4799995      -4.70594432E-06
   21.6000004      -4.86752015E-06
   21.7199993      -5.03292813E-06
   21.8400002      -5.20217554E-06
   21.9599991      -5.37526739E-06
   22.0799999      -5.55220277E-06
   22.2000008      -5.73298121E-06
   22.3199997      -5.91759681E-06
   22.4400005      -6.10603774E-06
   22.5599995      -6.29828264E-06
   22.6800003      -6.49429876E-06
   22.7999992      -6.69403744E-06
   22.9200001      -6.89743820E-06
   23.0400009      -7.10443283E-06
   23.1599998      -7.31494765E-06
   23.2800007      -7.52891083E-06
   23.3999996      -7.74625641E-06
   23.5200005      -7.96692893E-06
   23.6399994      -8.19087836E-06
   23.7600002      -8.41805922E-06
   23.8799992      -8.64842877E-06
   24.0000000      -8.88192881E-06
   24.1200008      -9.11849565E-06
   24.2399998      -9.35804655E-06
   24.3600006      -9.60048510E-06
   24.4799995      -9.84569579E-06
   24.6000004      -1.00935522E-05
   24.7199993      -1.03439124E-05
   24.8400002      -1.05966292E-05
   24.9599991      -1.08515396E-05
   25.0799999      -1.11084737E-05
   25.2000008      -1.13672495E-05
   25.3199997      -1.16276769E-05
   25.4400005      -1.18895532E-05
   25.5599995      -1.21526682E-05
   25.6800003      -1.24168073E-05
   25.7999992      -1.26817513E-05
   25.9200001      -1.29472746E-05
   26.0400009      -1.32131527E-05
   26.1599998      -1.34791571E-05
   26.2800007      -1.37450625E-05
   26.3999996      -1.40106367E-05
   26.5200005      -1.42756498E-05
   26.6399994      -1.45398662E-05
   26.7600002      -1.48030440E-05
   26.8799992      -1.50649375E-05
   27.0000000      -1.53252822E-05
   27.1200008      -1.55838061E-05
   27.2399998      -1.58402108E-05
   27.3600006      -1.60941963E-05
   27.4799995      -1.63454333E-05
   27.6000004      -1.65935926E-05
   27.7199993      -1.68383303E-05
   27.8400002      -1.70793064E-05
   27.9599991      -1.73161734E-05
   28.0799999      -1.75485893E-05
   28.2000008      -1.77761995E-05
   28.3199997      -1.79986491E-05
   28.4400005      -1.82155691E-05
   28.5599995      -1.84265791E-05
   28.6800003      -1.86312773E-05
   28.7999992      -1.88292579E-05
   28.9200001      -1.90201008E-05
   29.0400009      -1.92033804E-05
   29.1599998      -1.93786727E-05
   29.2800007      -1.95455650E-05
   29.3999996      -1.97036461E-05
   29.5200005      -1.98525177E-05
   29.6399994      -1.99917795E-05
   29.7600002      -2.01210296E-05
   29.8799992      -2.02398569E-05
   30.0000000      -2.03478467E-05
   30.1200008      -2.04445678E-05
   30.2399998      -2.05295837E-05
   30.3600006      -2.06024633E-05
   30.4799995      -2.06627683E-05
   30.6000004      -2.07100657E-05
   30.7199993      -2.07439243E-05
   30.8400002      -2.07639096E-05
   30.9599991      -2.07695794E-05
   31.0799999      -2.07604735E-05
   31.2000008      -2.07361263E-05
   31.3199997      -2.06960485E-05
   31.4400005      -2.06397472E-05
   31.5599995      -2.05667257E-05
   31.6800003      -2.04764910E-05
   31.7999992      -2.03685577E-05
   31.9200001      -2.02424635E-05
   32.0400009      -2.00977538E-05
   32.1599998      -1.99339866E-05
   32.2799988      -1.97507288E-05
   32.4000015      -1.95475532E-05
   32.5200005      -1.93240339E-05
   32.6399994      -1.90797400E-05
   32.7599983      -1.88142512E-05
   32.8800011      -1.85271419E-05
   33.0000000      -1.82179901E-05
   33.1199989      -1.78863811E-05
   33.2400017      -1.75318964E-05
   33.3600006      -1.71541251E-05
   33.4799995      -1.67526505E-05
   33.5999985      -1.63270597E-05
   33.7200012      -1.58769362E-05
   33.8400002      -1.54018599E-05
   33.9599991      -1.49014168E-05
   34.0800018      -1.43751959E-05
   34.2000008      -1.38227942E-05
   34.3199997      -1.32438208E-05
   34.4399986      -1.26378991E-05
   34.5600014      -1.20046652E-05
   34.6800003      -1.13437718E-05
   34.7999992      -1.06548832E-05
   34.9199982      -9.93767208E-06
   35.0400009      -9.19180911E-06
   35.1599998      -8.41696601E-06
   35.2799988      -7.61280080E-06
   35.4000015      -6.77896787E-06
   35.5200005      -5.91511434E-06
   35.6399994      -5.02089370E-06
   35.7599983      -4.09596987E-06
   35.8800011      -3.14003114E-06
   36.0000000      -2.15279420E-06
   36.1199989      -1.13400495E-06
   36.2400017      -8.34331786E-08
   36.3600006       9.99135523E-07
   36.4799995       2.11391171E-06
   36.5999985       3.26111171E-06
   36.7200012       4.44096167E-06
   36.8400002       5.65369737E-06
   36.9599991       6.89955823E-06
   37.0800018       8.17877844E-06
   37.2000008       9.49157766E-06
   37.3199997       1.08381473E-05
   37.4399986       1.22186484E-05
   37.5600014       1.36332092E-05
   37.6800003       1.50819278E-05
   37.7999992       1.65648798E-05
   37.9199982       1.80821280E-05
   38.0400009       1.96337260E-05
   38.1599998       2.12197319E-05
   38.2799988       2.28401950E-05
   38.4000015       2.44951771E-05
   38.5200005       2.61847199E-05
   38.6399994       2.79088636E-05
   38.7599983       2.96676317E-05
   38.8800011       3.14610261E-05
   39.0000000       3.32890304E-05
   39.1199989       3.51515991E-05
   39.2400017       3.70486741E-05
   39.3600006       3.89801862E-05
   39.4799995       4.09460336E-05
   39.5999985       4.29461179E-05
   39.7200012       4.49803156E-05
   39.8400002       4.70484811E-05
   39.9599991       4.91504361E-05
   40.0800018       5.12859842E-05
   40.2000008       5.34549035E-05
   40.3199997       5.56569430E-05
   40.4399986       5.78918298E-05
   40.5600014       6.01592910E-05
   40.6800003       6.24590393E-05
   40.7999992       6.47907800E-05
   40.9199982       6.71542221E-05
   41.0400009       6.95490380E-05
   41.1599998       7.19748787E-05
   41.2799988       7.44313729E-05
   41.4000015       7.69181061E-05
   41.5200005       7.94346197E-05
   41.6399994       8.19804336E-05
   41.7599983       8.45550312E-05
   41.8800011       8.71578741E-05
   42.0000000       8.97884092E-05
   42.1199989       9.24460837E-05
   42.2400017       9.51303155E-05
   42.3600006       9.78405296E-05
   42.4799995       1.00576115E-04
   42.5999985       1.03336424E-04
   42.7200012       1.06120788E-04
   42.8400002       1.08928492E-04
   42.9599991       1.11758796E-04
   43.0800018       1.14610899E-04
   43.2000008       1.17484014E-04
   43.3199997       1.20377263E-04
   43.4399986       1.23289792E-04
   43.5600014       1.26220679E-04
   43.6800003       1.29168984E-04
   43.7999992       1.32133762E-04
   43.9199982       1.35114053E-04
   44.0400009       1.38108822E-04
   44.1599998       1.41117038E-04
   44.2799988       1.44137652E-04
   44.4000015       1.47169587E-04
   44.5200005       1.50211694E-04
   44.6399994       1.53262808E-04
   44.7599983       1.56321737E-04
   44.8800011       1.59387258E-04
   45.0000000       1.62458135E-04
   45.1199989       1.65533100E-04
   45.2400017       1.68610903E-04
   45.3600006       1.71690233E-04
   45.4799995       1.74769724E-04
   45.5999985       1.77848036E-04
   45.7200012       1.80923729E-04
   45.8400002       1.83995347E-04
   45.9599991       1.87061349E-04
   46.0800018       1.90120176E-04
   46.2000008       1.93170257E-04
   46.3199997       1.96209963E-04
   46.4399986       1.99237678E-04
   46.5600014       2.02251758E-04
   46.6800003       2.05250515E-04
   46.7999992       2.08232290E-04
   46.9199982       2.11195409E-04
   47.0400009       2.14138097E-04
   47.1599998       2.17058623E-04
   47.2799988       2.19955167E-04
   47.4000015       2.22825824E-04
   47.5200005       2.25668729E-04
   47.6399994       2.28481935E-04
   47.7599983       2.31263504E-04
   47.8800011       2.34011459E-04
   48.0000000       2.36723834E-04
   48.1199989       2.39398680E-04
   48.2400017       2.42034017E-04
   48.3600006       2.44627823E-04
   48.4799995       2.47178075E-04
   48.5999985       2.49682722E-04
   48.7200012       2.52139667E-04
   48.8400002       2.54546758E-04
   48.9599991       2.56901840E-04
   49.0800018       2.59202672E-04
   49.2000008       2.61447101E-04
   49.3199997       2.63632799E-04
   49.4399986       2.65757611E-04
   49.5600014       2.67819327E-04
   49.6800003       2.69815704E-04
   49.7999992       2.71744531E-04
   49.9199982       2.73603626E-04
   50.0400009       2.75390776E-04
   50.1599998       2.77103740E-04
   50.2799988       2.78740219E-04
   50.4000015       2.80298002E-04
   50.5200005       2.81774730E-04
   50.6399994       2.83168134E-04
   50.7599983       2.84475886E-04
   50.8800011       2.85695685E-04
   51.0000000       2.86825205E-04
   51.1199989       2.87862233E-04
   51.2400017       2.88804527E-04
   51.3600006       2.89649848E-04
   51.4799995       2.90395954E-04
   51.5999985       2.91040691E-04
   51.7200012       2.91581819E-04
   51.8400002       2.92017066E-04
   51.9599991       2.92344310E-04
   52.0800018       2.92561337E-04
   52.2000008       2.92666024E-04
   52.3199997       2.92656187E-04
   52.4399986       2.92529789E-04
   52.5600014       2.92284705E-04
   52.6800003       2.91918986E-04
   52.7999992       2.91430566E-04
   52.9199982       2.90817610E-04
   53.0400009       2.90078169E-04
   53.1599998       2.89210351E-04
   53.2799988       2.88212439E-04
   53.4000015       2.87082599E-04
   53.5200005       2.85819144E-04
   53.6399994       2.84420385E-04
   53.7599983       2.82884692E-04
   53.8800011       2.81210494E-04
   54.0000000       2.79396336E-04
   54.1199989       2.77440733E-04
   54.2400017       2.75342289E-04
   54.3600006       2.73099664E-04
   54.4799995       2.70711695E-04
   54.5999985       2.68177129E-04
   54.7200012       2.65494891E-04
   54.8400002       2.62664020E-04
   54.9599991       2.59683584E-04
   55.0800018       2.56552768E-04
   55.2000008       2.53270817E-04
   55.3199997       2.49837147E-04
   55.4399986       2.46251206E-04
   55.5600014       2.42512644E-04
   55.6800003       2.38621156E-04
   55.7999992       2.34576539E-04
   55.9199982       2.30378646E-04
   56.0400009       2.26027492E-04
   56.1599998       2.21523092E-04
   56.2799988       2.16865665E-04
   56.4000015       2.12055485E-04
   56.5200005       2.07093006E-04
   56.6399994       2.01978779E-04
   56.7599983       1.96713561E-04
   56.8800011       1.91298197E-04
   57.0000000       1.85733632E-04
   57.1199989       1.80020972E-04
   57.2400017       1.74161440E-04
   57.3600006       1.68156315E-04
   57.4799995       1.62007127E-04
   57.5999985       1.55715490E-04
   57.7200012       1.49283223E-04
   57.8400002       1.42712248E-04
   57.9599991       1.36004717E-04
   58.0800018       1.29162858E-04
   58.2000008       1.22189056E-04
   58.3199997       1.15085873E-04
   58.4399986       1.07856024E-04
   58.5600014       1.00502359E-04
   58.6800003       9.30278766E-05
   58.7999992       8.54357349E-05
   58.9199982       7.77292516E-05
   59.0400009       6.99118755E-05
   59.1599998       6.19871716E-05
   59.2799988       5.39588691E-05
   59.4000015       4.58308277E-05
   59.5200005       3.76070493E-05
   59.6399994       2.92917211E-05
   59.7599983       2.08892016E-05
   59.8800011       1.24040271E-05
   60.0000000       3.84088253E-06
   60.1199989      -4.79538676E-06
   60.2400017      -1.34998081E-05
   60.3600006      -2.22672679E-05
   60.4799995      -3.10925316E-05
   60.5999985      -3.99702258E-05
   60.7200012      -4.88948499E-05
   60.8400002      -5.78607869E-05
   60.9599991      -6.68623034E-05
   61.0800018      -7.58935275E-05
   61.2000008      -8.49484932E-05
   61.3199997      -9.40211103E-05
   61.4399986      -1.03105209E-04
   61.5600014      -1.12194502E-04
   61.6800003      -1.21282625E-04
   61.7999992      -1.30363071E-04
   61.9199982      -1.39429307E-04
   62.0400009      -1.48474690E-04
   62.1599998      -1.57492512E-04
   62.2799988      -1.66476020E-04
   62.4000015      -1.75418332E-04
   62.5200005      -1.84312565E-04
   62.6399994      -1.93151747E-04
   62.7599983      -2.01928880E-04
   62.8800011      -2.10636950E-04
   63.0000000      -2.19268913E-04
   63.1199989      -2.27817727E-04
   63.2400017      -2.36276363E-04
   63.3600006      -2.44637748E-04
   63.4799995      -2.52894824E-04
   63.5999985      -2.61040550E-04
   63.7200012      -2.69067939E-04
   63.8400002      -2.76969949E-04
   63.9599991      -2.84739712E-04
   64.0800018      -2.92370329E-04
   64.1999969      -2.99854961E-04
   64.3199997      -3.07186885E-04
   64.4400024      -3.14359437E-04
   64.5599976      -3.21366097E-04
   64.6800003      -3.28200374E-04
   64.8000031      -3.34855955E-04
   64.9199982      -3.41326668E-04
   65.0400009      -3.47606518E-04
   65.1600037      -3.53689626E-04
   65.2799988      -3.59570229E-04
   65.4000015      -3.65242769E-04
   65.5199966      -3.70701746E-04
   65.6399994      -3.75941832E-04
   65.7600021      -3.80958023E-04
   65.8799973      -3.85745312E-04
   66.0000000      -3.90299043E-04
   66.1200027      -3.94614675E-04
   66.2399979      -3.98687931E-04
   66.3600006      -4.02514823E-04
   66.4800034      -4.06091684E-04
   66.5999985      -4.09414963E-04
   66.7200012      -4.12481488E-04
   66.8399963      -4.15288261E-04
   66.9599991      -4.17832576E-04
   67.0800018      -4.20111872E-04
   67.1999969      -4.22123936E-04
   67.3199997      -4.23866732E-04
   67.4400024      -4.25338629E-04
   67.5599976      -4.26538143E-04
   67.6800003      -4.27464314E-04
   67.8000031      -4.28116473E-04
   67.9199982      -4.28494153E-04
   68.0400009      -4.28597385E-04
   68.1600037      -4.28426400E-04
   68.2799988      -4.27981693E-04
   68.4000015      -4.27264080E-04
   68.5199966      -4.26274666E-04
   68.6399994      -4.25014936E-04
   68.7600021      -4.23486694E-04
   68.8799973      -4.21692064E-04
   69.0000000      -4.19633579E-04
   69.1200027      -4.17313830E-04
   69.2399979      -4.14735987E-04
   69.3600006      -4.11903282E-04
   69.4800034      -4.08819469E-04
   69.5999985      -4.05488390E-04
   69.7200012      -4.01914353E-04
   69.8399963      -3.98101984E-04
   69.9599991      -3.94056085E-04
   70.0800018      -3.89781868E-04
   70.1999969      -3.85284686E-04
   70.3199997      -3.80570244E-04
   70.4400024      -3.75644537E-04
   70.5599976      -3.70513677E-04
   70.6800003      -3.65184183E-04
   70.8000031      -3.59662692E-04
   70.9199982      -3.53956159E-04
   71.0400009      -3.48071771E-04
   71.1600037      -3.42016952E-04
   71.2799988      -3.35799210E-04
   71.4000015      -3.29426286E-04
   71.5199966      -3.22906009E-04
   71.6399994      -3.16246384E-04
   71.7600021      -3.09455616E-04
   71.8799973      -3.02542088E-04
   72.0000000      -2.95514241E-04
   72.1200027      -2.88380776E-04
   72.2399979      -2.81150365E-04
   72.3600006      -2.73831771E-04
   72.4800034      -2.66433897E-04
   72.5999985      -2.58965621E-04
   72.7200012      -2.51435908E-04