  -30.0000000       0.00000000    
  -29.8799992       0.00000000    
  -29.7600002       0.00000000    
  -29.6399994       0.00000000    
  -29.5200005      -2.29812948E-43
  -29.3999996       5.77475097E-42
  -29.2800007      -3.71231989E-41
  -29.1599998      -2.01156395E-40
  -29.0400009       7.42674173E-41
  -28.9200001       1.99861174E-39
  -28.7999992       3.30259003E-39
  -28.6800003      -7.64709872E-39
  -28.5599995      -4.11737194E-38
  -28.4400005      -6.16757977E-38
  -28.3199997       5.20727050E-38
  -28.2000008       4.18011995E-37
  -28.0799999       8.39380650E-37
  -27.9599991       4.69820578E-37
  -27.8400002      -1.91149576E-36
  -27.7199993      -6.36300028E-36
  -27.6000004      -9.38955314E-36
  -27.4799995      -3.11829867E-36
  -27.3600006       2.02528450E-35
  -27.2399998       5.72263653E-35
  -27.1200008       8.05585392E-35
  -27.0000000       3.98580431E-35
  -26.8799992      -1.09011638E-34
  -26.7600002      -3.45382717E-34
  -26.6399994      -5.28318314E-34
  -26.5200005      -4.07515836E-34
  -26.3999996       2.41623507E-34
  -26.2800007       1.37186234E-33
  -26.1599998       2.44355870E-33
  -26.0400009       2.46527394E-33
  -25.9200001       4.87630276E-34
  -25.7999992      -3.51981800E-33
  -25.6800003      -7.88870365E-33
  -25.5599995      -9.34244780E-33
  -25.4400005      -4.55378026E-33
  -25.3199997       7.07025836E-33
  -25.2000008       2.08496243E-32
  -25.0799999       2.68622764E-32
  -24.9599991       1.43565946E-32
  -24.8400002      -1.99878635E-32
  -24.7199993      -6.39341327E-32
  -24.6000004      -8.81847575E-32
  -24.4799995      -5.70443840E-32
  -24.3600006       4.88927685E-32
  -24.2399998       2.07048542E-31
  -24.1200008       3.40583854E-31
  -24.0000000       3.35948903E-31
  -23.8799992       9.55627301E-32
  -23.7600002      -3.89190804E-31
  -23.6399994      -9.79729120E-31
  -23.5200005      -1.38971287E-30
  -23.3999996      -1.27063285E-30
  -23.2800007      -3.75067098E-31
  -23.1599998       1.25762849E-30
  -23.0400009       3.18274782E-30
  -22.9200001       4.58774644E-30
  -22.7999992       4.52860308E-30
  -22.6800003       2.32532625E-30
  -22.5599995      -2.01228214E-30
  -22.4400005      -7.51320242E-30
  -22.3199997      -1.23005828E-29
  -22.2000008      -1.40545716E-29
  -22.0799999      -1.08124521E-29
  -21.9599991      -1.87745181E-30
  -21.8400002       1.14928056E-29
  -21.7199993       2.59355025E-29
  -21.6000004       3.65470665E-29
  -21.4799995       3.81115957E-29
  -21.3600006       2.67088506E-29
  -21.2399998       1.27759393E-30
  -21.1200008      -3.52776801E-29
  -21.0000000      -7.57046107E-29
  -20.8799992      -1.08842860E-28
  -20.7600002      -1.20918549E-28
  -20.6399994      -9.78312106E-29
  -20.5200005      -2.87475408E-29
  -20.3999996       8.87119082E-29
  -20.2800007       2.41986959E-28
  -20.1599998       3.97385094E-28
  -20.0400009       4.97532127E-28
  -19.9200001       4.67190016E-28
  -19.7999992       2.31896482E-28
  -19.6800003      -2.49223135E-28
  -19.5599995      -9.41431535E-28
  -19.4400005      -1.69646868E-27
  -19.3199997      -2.23957226E-27
  -19.2000008      -2.20455635E-27
  -19.0799999      -1.23290466E-27
  -18.9599991       8.66191230E-28
  -18.8400002       3.92718917E-27
  -18.7199993       7.27573269E-27
  -18.6000004       9.70044305E-27
  -18.4799995       9.63589898E-27
  -18.3600006       5.60464026E-27
  -18.2399998      -3.11591295E-27
  -18.1200008      -1.57502936E-26
  -18.0000000      -2.94714459E-26
  -17.8799992      -3.93746116E-26
  -17.7600002      -3.92879078E-26
  -17.6399994      -2.35557764E-26
  -17.5200005       1.03925075E-26
  -17.3999996       5.92999377E-26
  -17.2800007       1.12175614E-25
  -17.1599998       1.50439534E-25
  -17.0400009       1.51154550E-25
  -16.9200001       9.36983222E-26
  -16.7999992      -3.09448717E-26
  -16.6800003      -2.10540566E-25
  -16.5599995      -4.05173580E-25
  -16.4400005      -5.48165884E-25
  -16.3199997      -5.57748129E-25
  -16.2000008      -3.60497872E-25
  -16.0799999       7.64078593E-26
  -15.9600000       7.11897417E-25
  -15.8400002       1.40872443E-24
  -15.7200003       1.93615003E-24
  -15.6000004       2.00913288E-24
  -15.4799995       1.36766255E-24
  -15.3599997      -1.13320042E-25
  -15.2399998      -2.30914891E-24
  -15.1199999      -4.76612325E-24
  -15.0000000      -6.70477101E-24
  -14.8800001      -7.14543424E-24
  -14.7600002      -5.17022790E-24
  -14.6400003      -2.91978400E-25
  -14.5200005       7.15292526E-24
  -14.3999996       1.57200494E-23
  -14.2799997       2.28375563E-23
  -14.1599998       2.51878933E-23
  -14.0400000       1.95464523E-23
  -13.9200001       3.99491193E-24
  -13.8000002      -2.07473574E-23
  -13.6800003      -5.02951712E-23
  -13.5600004      -7.63866763E-23
  -13.4399996      -8.79569749E-23
  -13.3199997      -7.37293320E-23
  -13.1999998      -2.61291432E-23
  -13.0799999       5.42340736E-23
  -12.9600000       1.54830563E-22
  -12.8400002       2.49893111E-22
  -12.7200003       3.03132967E-22
  -12.6000004       2.75450084E-22
  -12.4799995       1.37304674E-22
  -12.3599997      -1.16369050E-22
  -12.2399998      -4.52704277E-22
  -12.1199999      -7.94263227E-22
  -12.0000000      -1.02472643E-21
  -11.8800001      -1.01072111E-21
  -11.7600002      -6.39811582E-22
  -11.6400003       1.30874650E-22
  -11.5200005       1.22711123E-21
  -11.3999996       2.42789182E-21
  -11.2799997       3.37199833E-21
  -11.1599998       3.61533342E-21
  -11.0400000       2.74299251E-21
  -10.9200001       5.23368038E-22
  -10.8000002      -2.92834336E-21
  -10.6800003      -7.02784119E-21
  -10.5600004      -1.07004124E-20
  -10.4399996      -1.25137741E-20
  -10.3199997      -1.09909976E-20
  -10.1999998      -5.08143190E-21
  -10.0799999       5.29465022E-21
  -9.96000004       1.87741468E-20
  -9.84000015       3.23402578E-20
  -9.72000027       4.15595573E-20
  -9.60000038       4.13909449E-20
  -9.47999954       2.75587661E-20
  -9.35999966      -1.70449693E-21
  -9.23999977      -4.39471204E-20
  -9.11999989      -9.13869270E-20
  -9.00000000      -1.31025538E-19
  -8.88000011      -1.46494798E-19
  -8.76000023      -1.21808562E-19
  -8.64000034      -4.66601694E-20
  -8.52000046       7.77453422E-20
  -8.39999962       2.33944513E-19
  -8.27999973       3.86536822E-19
  -8.15999985       4.85445987E-19
  -8.03999996       4.75247419E-19
  -7.92000008       3.10268184E-19
  -7.80000019      -2.67687408E-20
  -7.67999983      -5.06848716E-19
  -7.55999994      -1.04341690E-18
  -7.44000006      -1.49413706E-18
  -7.32000017      -1.68070662E-18
  -7.19999981      -1.42836049E-18
  -7.07999992      -6.21335528E-19
  -6.96000004       7.35900250E-19
  -6.84000015       2.46792562E-18
  -6.71999979       4.20808615E-18
  -6.59999990       5.42774825E-18
  -6.48000002       5.52719935E-18
  -6.36000013       3.98681617E-18
  -6.23999977       5.58403524E-19
  -6.11999989      -4.54378334E-18
  -6.00000000      -1.05095902E-17
  -5.88000011      -1.59209967E-17
  -5.76000023      -1.89160192E-17
  -5.63999987      -1.75534062E-17
  -5.51999998      -1.03542697E-17
  -5.40000010       3.06499761E-18
  -5.28000021       2.14159625E-17
  -5.15999985       4.14092769E-17
  -5.03999996       5.78717659E-17
  -4.92000008       6.44596440E-17
  -4.80000019       5.50071666E-17
  -4.67999983       2.53839859E-17
  -4.55999994      -2.44625167E-17
  -4.44000006      -8.87868737E-17
  -4.32000017      -1.55266486E-16
  -4.19999981      -2.05766538E-16
  -4.07999992      -2.19058218E-16
  -3.96000004      -1.75517998E-16
  -3.83999991      -6.32950664E-17
  -3.72000003       1.15173015E-16
  -3.59999990       3.37955029E-16
  -3.48000002       5.61679935E-16
  -3.35999990       7.24676285E-16
  -3.24000001       7.56356164E-16
  -3.11999989       5.92773932E-16
  -3.00000000       1.96607081E-16
  -2.88000011      -4.22043854E-16
  -2.75999999      -1.18923690E-15
  -2.64000010      -1.96118578E-15
  -2.51999998      -2.53426202E-15
  -2.40000010      -2.67454465E-15
  -2.27999997      -2.16673230E-15
  -2.16000009      -8.77188379E-16
  -2.03999996       1.17965664E-15
  -1.91999996       3.78712708E-15
  -1.79999995       6.50257834E-15
  -1.67999995       8.68133724E-15
  -1.55999994       9.55992301E-15
  -1.44000006       8.39969455E-15
  -1.32000005       4.67771573E-15
  -1.20000005      -1.70451542E-15
  -1.08000004      -1.02383447E-14
 -0.959999979      -1.97042090E-14
 -0.839999974      -2.81991973E-14
 -0.720000029      -3.33352832E-14
 -0.600000024      -3.26210074E-14
 -0.479999989      -2.40011258E-14
 -0.360000014      -6.48404356E-15
 -0.239999995       1.92562607E-14
 -0.119999997       5.04480626E-14
  -1.11022302E-15   8.21117940E-14
  0.119999997       1.07401237E-13
  0.239999995       1.18465879E-13
  0.360000014       1.07812529E-13
  0.479999989       7.00292079E-14
  0.600000024       3.61588794E-15
  0.720000029      -8.74315540E-14
  0.839999974      -1.92688435E-13
  0.959999979      -2.95404109E-13
   1.08000004      -3.73919591E-13
   1.20000005      -4.04488075E-13
   1.32000005      -3.65328265E-13
   1.44000006      -2.41449981E-13
   1.55999994      -2.95219002E-14
   1.67999995       2.58140812E-13
   1.79999995       5.91447735E-13
   1.91999996       9.23122364E-13
   2.03999996       1.19256016E-12
   2.16000009       1.33302972E-12
   2.27999997       1.28170001E-12
   2.40000010       9.91374626E-13
   2.51999998       4.42292226E-13
   2.64000010      -3.47954169E-13
   2.75999999      -1.31835135E-12
   2.88000011      -2.36390703E-12
   3.00000000      -3.34161887E-12
   3.11999989      -4.08311275E-12
   3.24000001      -4.41312395E-12
   3.35999990      -4.17208282E-12
   3.48000002      -3.24041380E-12
   3.59999990      -1.56186446E-12
   3.72000003       8.36727497E-13
   3.83999991       3.83132198E-12
   3.96000004       7.19369920E-12
   4.07999992       1.05924774E-11
   4.19999981       1.36026529E-11
   4.32000017       1.57243090E-11
   4.44000006       1.64116880E-11
   4.55999994       1.51146665E-11
   4.67999983       1.13352548E-11
   4.80000019       4.70177673E-12
   4.92000008      -4.93821043E-12
   5.03999996      -1.74085451E-11
   5.15999985      -3.20866285E-11
   5.28000021      -4.77926344E-11
   5.40000010      -6.27099969E-11
   5.51999998      -7.43693787E-11
   5.63999987      -7.97333033E-11
   5.76000023      -7.54181370E-11
   5.88000011      -5.80812620E-11
   6.00000000      -2.49819818E-11
   6.11999989       2.53048450E-11
   6.23999977       9.20824805E-11
   6.36000013       1.71737388E-10
   6.48000002       2.57102090E-10
   6.59999990       3.37153777E-10
   6.71999979       3.97238853E-10
   6.84000015       4.19993901E-10
   6.96000004       3.87078702E-10
   7.07999992       2.81740631E-10
   7.19999981       9.20950538E-11
   7.32000017      -1.85151020E-10
   7.44000006      -5.40976375E-10
   7.55999994      -9.50918344E-10
   7.67999983      -1.37324185E-09
   7.80000019      -1.74913339E-09
   7.92000008      -2.00556882E-09
   8.03999996      -2.06130424E-09
   8.15999985      -1.83610593E-09
   8.27999973      -1.26288280E-09
   8.39999962      -3.01859260E-10
   8.52000046       1.04462794E-09
   8.64000034       2.71863954E-09
   8.76000023       4.59674121E-09
   8.88000011       6.48615739E-09
   9.00000000       8.12926526E-09
   9.11999989       9.21822085E-09
   9.23999977       9.42063050E-09
   9.35999966       8.41598169E-09
   9.47999954       5.94104321E-09
   9.60000038       1.84087323E-09
   9.72000027      -3.87952603E-09
   9.84000015      -1.10091429E-08
   9.96000004      -1.90975857E-08
   10.0799999      -2.74416614E-08
   10.1999998      -3.50985019E-08
   10.3199997      -4.09302743E-08
   10.4399996      -4.36830199E-08
   10.5600004      -4.20987654E-08
   10.6800003      -3.50563525E-08
   10.8000002      -2.17320402E-08
   10.9200001      -1.76709103E-09
   11.0400000       2.45739145E-08
   11.1599998       5.62726541E-08
   11.2799997       9.14739999E-08
   11.3999996       1.27468766E-07
   11.5200005       1.60757907E-07
   11.6400003       1.87208897E-07
   11.7600002       2.02308144E-07
   11.8800001       2.01505401E-07
   12.0000000       1.80637372E-07
   12.1199999       1.36408644E-07
   12.2399998       6.68998439E-08
   12.3599997      -2.79334476E-08
   12.4799995      -1.45811882E-07
   12.6000004      -2.81775954E-07
   12.7200003      -4.27962561E-07
   12.8400002      -5.73549073E-07
   12.9600000      -7.04892273E-07
   13.0799999      -8.05876653E-07
   13.1999998      -8.58474493E-07
   13.3199997      -8.43504438E-07
   13.4399996      -7.41562417E-07
   13.5600004      -5.34083142E-07
   13.6800003      -2.04480443E-07
   13.8000002       2.60693611E-07
   13.9200001       8.70637450E-07
   14.0400000       1.62930110E-06
   14.1599998       2.53456597E-06
   14.2799997       3.57765543E-06
   14.3999996       4.74282433E-06
   14.5200005       6.00735757E-06
   14.6400003       7.34190053E-06
   14.7600002       8.71111297E-06
   14.8800001       1.00746392E-05
   15.0000000       1.13883643E-05
   15.1199999       1.26059067E-05
   15.2399998       1.36802955E-05
   15.3599997       1.45657714E-05
   15.4799995       1.52196335E-05
   15.6000004       1.56040478E-05
   15.7200003       1.56877632E-05
   15.8400002       1.54476384E-05
   15.9600000       1.48699182E-05
   16.0799999       1.39511940E-05
   16.2000008       1.26989880E-05
   16.3199997       1.11319432E-05
   16.4400005       9.27955625E-06
   16.5599995       7.18148112E-06
   16.6800003       4.88639716E-06
   16.7999992       2.45047408E-06
   16.9200001      -6.45065370E-08
   17.0400009      -2.59330682E-06
   17.1599998      -5.06957531E-06
   17.2800007      -7.42827297E-06
   17.3999996      -9.60807574E-06
   17.5200005      -1.15536413E-05
   17.6399994      -1.32176256E-05
   17.7600002      -1.45623608E-05
   17.8799992      -1.55611106E-05
   18.0000000      -1.61988519E-05
   18.1200008      -1.64725443E-05
   18.2399998      -1.63908844E-05
   18.3600006      -1.59735864E-05
   18.4799995      -1.52502380E-05
   18.6000004      -1.42587933E-05
   18.7199993      -1.30438002E-05
   18.8400002      -1.16544743E-05
   18.9599991      -1.01427013E-05
   19.0799999      -8.56106817E-06
   19.2000008      -6.96101733E-06
   19.3199997      -5.39116991E-06
   19.4400005      -3.89588786E-06
   19.5599995      -2.51408619E-06
   19.6800003      -1.27831925E-06
   19.7999992      -2.14135724E-07
   19.9200001       6.60312878E-07
   20.0400009       1.33442450E-06
   20.1599998       1.80507925E-06
   20.2800007       2.07637163E-06
   20.3999996       2.15915225E-06
   20.5200005       2.07039648E-06
   20.6399994       1.83240081E-06
   20.7600002       1.47182209E-06
   20.8799992       1.01857097E-06
   21.0000000       5.04578168E-07
   21.1200008      -3.75321889E-08
   21.2399998      -5.75821787E-07
   21.3600006      -1.08041536E-06
   21.4799995      -1.52481095E-06
   21.6000004      -1.88705349E-06
   21.7199993      -2.15069895E-06
   21.8400002      -2.30550654E-06
   21.9599991      -2.34780191E-06
   22.0799999      -2.28047816E-06
   22.2000008      -2.11262522E-06
   22.3199997      -1.85879674E-06
   22.4400005      -1.53796248E-06
   22.5599995      -1.17220873E-06
   22.6800003      -7.85274267E-07
   22.7999992      -4.01023385E-07
   22.9200001      -4.19594848E-08
   23.0400009       2.72116949E-07
   23.1599998       5.25216763E-07
   23.2800007       7.05966556E-07
   23.3999996       8.08064385E-07
   23.5200005       8.30370027E-07
   23.6399994       7.76644015E-07
   23.7600002       6.54974485E-07
   23.8799992       4.76955279E-07
   24.0000000       2.56694221E-07
   24.1200008       9.73799263E-09
   24.2399998      -2.47998429E-07
   24.3600006      -5.01219233E-07
   24.4799995      -7.36086520E-07
   24.6000004      -9.40864538E-07
   24.7199993      -1.10634528E-06
   24.8400002      -1.22605286E-06
   24.9599991      -1.29624584E-06
   25.0799999      -1.31574882E-06
   25.2000008      -1.28565989E-06
   25.3199997      -1.20898380E-06
   25.4400005      -1.09023608E-06
   25.5599995      -9.35062872E-07
   25.6800003      -7.49905723E-07
   25.7999992      -5.41729264E-07
   25.9200001      -3.17817722E-07
   26.0400009      -8.56311999E-08
   26.1599998       1.47295879E-07
   26.2800007       3.73436478E-07
   26.3999996       5.85359487E-07
   26.5200005       7.75846786E-07
   26.6399994       9.38055564E-07
   26.7600002       1.06573259E-06
   26.8799992       1.15347757E-06
   27.0000000       1.19704237E-06
   27.1200008       1.19363995E-06
   27.2399998       1.14223792E-06
   27.3600006       1.04379978E-06
   27.4799995       9.01444025E-07
   27.6000004       7.20492437E-07
   27.7199993       5.08388723E-07
   27.8400002       2.74477259E-07
   27.9599991       2.96448412E-08
   28.0799999      -2.14160451E-07
   28.2000008      -4.44507350E-07
   28.3199997      -6.49122342E-07
   28.4400005      -8.16552188E-07
   28.5599995      -9.36803985E-07
   28.6800003      -1.00191971E-06
   28.7999992      -1.00644445E-06
   28.9200001      -9.47756178E-07
   29.0400009      -8.26235180E-07
   29.1599998      -6.45260116E-07
   29.2800007      -4.11033227E-07
   29.3999996      -1.32247578E-07
   29.5200005       1.80377910E-07
   29.6399994       5.14662304E-07
   29.7600002       8.57584553E-07
   29.8799992       1.19592085E-06
   30.0000000       1.51685538E-06
   30.1200008       1.80852624E-06
   30.2399998       2.06047889E-06
   30.3600006       2.26400357E-06
   30.4799995       2.41235239E-06
   30.6000004       2.50083554E-06
   30.7199993       2.52680798E-06
   30.8400002       2.48957349E-06
   30.9599991       2.39022575E-06
   31.0799999       2.23146117E-06
   31.2000008       2.01738862E-06
   31.3199997       1.75335936E-06
   31.4400005       1.44582975E-06
   31.5599995       1.10226711E-06
   31.6800003       7.31087368E-07
   31.7999992       3.41613543E-07
   31.9200001      -5.59713556E-08
   32.0400009      -4.50703965E-07
   32.1599998      -8.30982799E-07
   32.2799988      -1.18479807E-06
   32.4000015      -1.50006701E-06
   32.5200005      -1.76507888E-06
   32.6399994      -1.96904148E-06
   32.7599983      -2.10269991E-06
   32.8800011      -2.15898785E-06
   33.0000000      -2.13365524E-06
   33.1199989      -2.02580782E-06
   33.2400017      -1.83829343E-06
   33.3600006      -1.57787417E-06
   33.4799995      -1.25513907E-06
   33.5999985      -8.84127303E-07
   33.7200012      -4.81663847E-07
   33.8400002      -6.64348079E-08
   33.9599991       3.42140993E-07
   34.0800018       7.25160589E-07
   34.2000008       1.06550476E-06
   34.3199997       1.34901450E-06
   34.4399986       1.56546514E-06
   34.5600014       1.70924420E-06
   34.6800003       1.77965842E-06
   34.7999992       1.78083224E-06
   34.9199982       1.72119690E-06
   35.0400009       1.61260812E-06
   35.1599998       1.46917171E-06
   35.2799988       1.30588217E-06
   35.4000015       1.13720262E-06
   35.5200005       9.75721377E-07
   35.6399994       8.31016223E-07
   35.7599983       7.08833056E-07
   35.8800011       6.10661289E-07
   36.0000000       5.33746800E-07
   36.1199989       4.71540289E-07
   36.2400017       4.14537084E-07
   36.3600006       3.51426308E-07
   36.4799995       2.70436743E-07
   36.5999985       1.60748399E-07
   36.7200012       1.38321994E-08
   36.8400002      -1.75412012E-07
   36.9599991      -4.07830157E-07
   37.0800018      -6.79582342E-07
   37.2000008      -9.82148208E-07
   37.3199997      -1.30277328E-06
   37.4399986      -1.62531910E-06
   37.5600014      -1.93144228E-06
   37.6800003      -2.20200127E-06
   37.7999992      -2.41856674E-06
   37.9199982      -2.56490534E-06
   38.0400009      -2.62831077E-06
   38.1599998      -2.60066531E-06
   38.2799988      -2.47914772E-06
   38.4000015      -2.26652583E-06
   38.5200005      -1.97101849E-06
   38.6399994      -1.60573336E-06
   38.7599983      -1.18773926E-06
   38.8800011      -7.36848563E-07
   39.0000000      -2.74207508E-07
   39.1199989       1.79186145E-07
   39.2400017       6.03925628E-07
   39.3600006       9.83485052E-07
   39.4799995       1.30525973E-06
   39.5999985       1.56128237E-06
   39.7200012       1.74856348E-06
   39.8400002       1.86903549E-06
   39.9599991       1.92910647E-06
   40.0800018       1.93886262E-06
   40.2000008       1.91097820E-06
   40.3199997       1.85942088E-06
   40.4399986       1.79805124E-06
   40.5600014       1.73923218E-06
   40.6800003       1.69255918E-06
   40.7999992       1.66382506E-06
   40.9199982       1.65431595E-06
   41.0400009       1.66051211E-06
   41.1599998       1.67424082E-06
   41.2799988       1.68329075E-06
   41.4000015       1.67245969E-06
   41.5200005       1.62496633E-06
   41.6399994       1.52412201E-06
   41.7599983       1.35512494E-06
   41.8800011       1.10682322E-06
   42.0000000       7.73282409E-07
   42.1199989       3.55002953E-07
   42.2400017      -1.40343545E-07
   42.3600006      -6.97756377E-07
   42.4799995      -1.29537182E-06
   42.5999985      -1.90554692E-06
   42.7200012      -2.49649702E-06
   42.8400002      -3.03437264E-06
   42.9599991      -3.48561639E-06
   43.0800018      -3.81941436E-06
   43.2000008      -4.01004172E-06
   43.3199997      -4.03890681E-06
   43.4399986      -3.89613479E-06
   43.5600014      -3.58154739E-06
   43.6800003      -3.10497103E-06
   43.7999992      -2.48584274E-06
   43.9199982      -1.75215371E-06
   44.0400009      -9.38814651E-07
   44.1599998      -8.55715285E-08
   44.2799988       7.65367474E-07
   44.4000015       1.57182376E-06
   44.5200005       2.29408647E-06
   44.6399994       2.89714353E-06
   44.7599983       3.35257414E-06
   44.8800011       3.64000903E-06
   45.0000000       3.74810065E-06
   45.1199989       3.67497682E-06
   45.2400017       3.42818748E-06
   45.3600006       3.02417652E-06
   45.4799995       2.48732817E-06
   45.5999985       1.84864609E-06
   45.7200012       1.14413149E-06
   45.8400002       4.12930490E-07
   45.9599991      -3.04684988E-07
   46.0800018      -9.69422558E-07
   46.2000008      -1.54508336E-06
   46.3199997      -2.00059162E-06
   46.4399986      -2.31183890E-06
   46.5600014      -2.46322861E-06
   46.6800003      -2.44881107E-06
   46.7999992      -2.27289115E-06
   46.9199982      -1.95002440E-06
   47.0400009      -1.50433436E-06
   47.1599998      -9.68139602E-07
   47.2799988      -3.79927769E-07
   47.4000015       2.18217039E-07
   47.5200005       7.83573796E-07
   47.6399994       1.27591272E-06
   47.7599983       1.66054144E-06
   47.8800011       1.91100253E-06
   48.0000000       2.01117223E-06
   48.1199989       1.95654707E-06
   48.2400017       1.75457558E-06
   48.3600006       1.42397789E-06
   48.4799995       9.93088861E-07
   48.5999985       4.97365818E-07
   48.7200012      -2.37197302E-08
   48.8400002      -5.30113823E-07
   48.9599991      -9.84611461E-07
   49.0800018      -1.35595769E-06
   49.2000008      -1.62132278E-06
   49.3199997      -1.76791946E-06
   49.4399986      -1.79361916E-06
   49.5600014      -1.70653016E-06
   49.6800003      -1.52360701E-06
   49.7999992      -1.26845941E-06
   49.9199982      -9.68613449E-07
   50.0400009      -6.52524079E-07
   50.1599998      -3.46661608E-07
   50.2799988      -7.29766612E-08
   50.4000015       1.53001892E-07
   50.5200005       3.23255648E-07
   50.6399994       4.37466838E-07
   50.7599983       5.02325463E-07
   50.8800011       5.30066075E-07
   51.0000000       5.36429070E-07
   51.1199989       5.38299957E-07
   51.2400017       5.51309029E-07
   51.3600006       5.87670002E-07
   51.4799995       6.54503708E-07
   51.5999985       7.52828896E-07
   51.7200012       8.77325249E-07
   51.8400002       1.01687976E-06
   51.9599991       1.15584203E-06
   52.0800018       1.27583019E-06
   52.2000008       1.35787297E-06
   52.3199997       1.38463633E-06
   52.4399986       1.34248023E-06
   52.5600014       1.22311462E-06
   52.6800003       1.02467573E-06
   52.7999992       7.52113067E-07
   52.9199982       4.16861326E-07
   53.0400009       3.58525760E-08
   53.1599998      -3.69999327E-07
   53.2799988      -7.77655600E-07
   53.4000015      -1.16393198E-06
   53.5200005      -1.50737696E-06
   53.6399994      -1.78985056E-06
   53.7599983      -1.99765282E-06
   53.8800011      -2.12211512E-06
   54.0000000      -2.15964405E-06
   54.1199989      -2.11127622E-06
   54.2400017      -1.98186194E-06
   54.3600006      -1.77903928E-06
   54.4799995      -1.51217534E-06
   54.5999985      -1.19143920E-06
   54.7200012      -8.27135239E-07
   54.8400002      -4.29378332E-07
   54.9599991      -8.12036127E-09
   55.0800018       4.26522945E-07
   55.2000008       8.63756497E-07
   55.3199997       1.29155137E-06
   55.4399986       1.69621865E-06
   55.5600014       2.06226946E-06
   55.6800003       2.37268273E-06
   55.7999992       2.60964543E-06
   55.9199982       2.75575735E-06
   56.0400009       2.79561777E-06
   56.1599998       2.71763770E-06
   56.2799988       2.51586926E-06
   56.4000015       2.19160643E-06
   56.5200005       1.75452158E-06
   56.6399994       1.22311803E-06
   56.7599983       6.24354527E-07
   56.8800011      -7.62922703E-09
   57.0000000      -6.33646891E-07
   57.1199989      -1.21232199E-06
   57.2400017      -1.70343048E-06
   57.3600006      -2.07142011E-06
   57.4799995      -2.28875228E-06
   57.5999985      -2.33871197E-06
   57.7200012      -2.21736104E-06
   57.8400002      -1.93439541E-06
   57.9599991      -1.51276106E-06
   58.0800018      -9.87025032E-07
   58.2000008      -4.00616898E-07
   58.3199997       1.97811104E-07
   58.4399986       7.58563431E-07
   58.5600014       1.23521568E-06
   58.6800003       1.58864236E-06
   58.7999992       1.79036545E-06
   58.9199982       1.82490271E-06
   59.0400009       1.69090333E-06
   59.1599998       1.40098837E-06
   59.2799988       9.80343088E-07
   59.4000015       4.64239918E-07
   59.5200005      -1.05231273E-07
   59.6399994      -6.82881762E-07
   59.7599983      -1.22422080E-06
   59.8800011      -1.68897611E-06
   60.0000000      -2.04403614E-06
   60.1199989      -2.26559223E-06
   60.2400017      -2.34036270E-06
   60.3600006      -2.26587508E-06
   60.4799995      -2.04988714E-06
   60.5999985      -1.70909379E-06
   60.7200012      -1.26732959E-06
   60.8400002      -7.53484244E-07
   60.9599991      -1.99350026E-07
   61.0800018       3.62412777E-07
   61.2000008       9.00061650E-07
   61.3199997       1.38422888E-06
   61.4399986       1.78903281E-06
   61.5600014       2.09287350E-06
   61.6800003       2.27897385E-06
   61.7999992       2.33574656E-06
   61.9199982       2.25705912E-06
   62.0400009       2.04244475E-06
   62.1599998       1.69728389E-06
   62.2799988       1.23292762E-06
   62.4000015       6.66715721E-07
   62.5200005       2.18048868E-08
   62.6399994      -6.73280567E-07
   62.7599983      -1.38545727E-06
   62.8800011      -2.07830340E-06
   63.0000000      -2.71370118E-06
   63.1199989      -3.25385531E-06
   63.2400017      -3.66358654E-06
   63.3600006      -3.91274489E-06
   63.4799995      -3.97854183E-06
   63.5999985      -3.84758550E-06
   63.7200012      -3.51740664E-06
   63.8400002      -2.99728276E-06
   63.9599991      -2.30823434E-06
   64.0800018      -1.48212655E-06
   64.1999969      -5.59904095E-07
   64.3199997       4.10927697E-07
   64.4400024       1.37938775E-06
   64.5599976       2.29441366E-06
   64.6800003       3.10827613E-06
   64.8000031       3.77971901E-06
   64.9199982       4.27655277E-06
   65.0400009       4.57749002E-06
   65.1600037       4.67308291E-06
   65.2799988       4.56572116E-06
   65.4000015       4.26874249E-06
   65.5199966       3.80479059E-06
   65.6399994       3.20362233E-06
   65.7600021       2.49961158E-06
   65.8799973       1.72920181E-06
   66.0000000       9.28541738E-07
   66.1200027       1.31493763E-07
   66.2399979      -6.31858541E-07
   66.3600006      -1.33615038E-06
   66.4800034      -1.96114024E-06
   66.5999985      -2.49165578E-06
   66.7200012      -2.91720085E-06
   66.8399963      -3.23136669E-06
   66.9599991      -3.43118631E-06
   67.0800018      -3.51655353E-06
   67.1999969      -3.48978665E-06
   67.3199997      -3.35538198E-06
   67.4400024      -3.11994859E-06
   67.5599976      -2.79228061E-06
   67.6800003      -2.38349298E-06
   67.8000031      -1.90713536E-06
   67.9199982      -1.37919244E-06
   68.0400009      -8.17898751E-07
   68.1600037      -2.43320812E-07
   68.2799988       3.23310218E-07
   68.4000015       8.60491355E-07
   68.5199966       1.34751156E-06
   68.6399994       1.76559968E-06
   68.7600021       2.09905284E-06
   68.8799973       2.33623314E-06
   69.0000000       2.47032449E-06
   69.1200027       2.49976665E-06
   69.2399979       2.42830697E-06
   69.3600006       2.26465363E-06
   69.4800034       2.02175556E-06
   69.5999985       1.71576858E-06
   69.7200012       1.36481572E-06
   69.8399963       9.87651674E-07
   69.9599991       6.02369710E-07
   70.0800018       2.25267641E-07
   70.1999969      -1.30022201E-07
   70.3199997      -4.53074648E-07
   70.4400024      -7.36856407E-07
   70.5599976      -9.77569471E-07
   70.6800003      -1.17420802E-06
   70.8000031      -1.32791183E-06
   70.9199982      -1.44121805E-06
   71.0400009      -1.51731570E-06
   71.1600037      -1.55939972E-06
   71.2799988      -1.57019758E-06
   71.4000015      -1.55171335E-06
   71.5199966      -1.50520543E-06
   71.6399994      -1.43137379E-06
   71.7600021      -1.33071171E-06
   71.8799973      -1.20395453E-06
   72.0000000      -1.05254242E-06
   72.1200027      -8.79018216E-07
   72.2399979      -6.87286729E-07
   72.3600006      -4.82682765E-07
   72.4800034      -2.71818891E-07
   72.5999985      -6.22168486E-08
   72.7200012       1.38244616E-07