  -30.0000000       0.00000000    
  -29.8799992       0.00000000    
  -29.7600002       0.00000000    
  -29.6399994       0.00000000    
  -29.5200005       0.00000000    
  -29.3999996       0.00000000    
  -29.2800007       7.93134931E-43
  -29.1599998      -1.66684452E-41
  -29.0400009      -2.40694031E-40
  -28.9200001      -1.44939523E-39
  -28.7999992      -5.44182908E-39
  -28.6800003      -1.40335697E-38
  -28.5599995      -2.40362624E-38
  -28.4400005      -1.72796874E-38
  -28.3199997       4.78738823E-38
  -28.2000008       2.25379935E-37
  -28.0799999       5.27537125E-37
  -27.9599991       8.24418459E-37
  -27.8400002       7.46721594E-37
  -27.7199993      -2.89942800E-37
  -27.6000004      -2.79911974E-36
  -27.4799995      -6.63368756E-36
  -27.3600006      -1.02934562E-35
  -27.2399998      -1.06295834E-35
  -27.1200008      -3.58156749E-36
  -27.0000000       1.36871250E-35
  -26.8799992       3.96529372E-35
  -26.7600002       6.57186979E-35
  -26.6399994       7.60660730E-35
  -26.5200005       5.19608853E-35
  -26.3999996      -1.92154425E-35
  -26.2800007      -1.32626390E-34
  -26.1599998      -2.57469102E-34
  -26.0400009      -3.37639332E-34
  -25.9200001      -3.06239513E-34
  -25.7999992      -1.13567574E-34
  -25.6800003       2.39061549E-34
  -25.5599995       6.74067675E-34
  -25.4400005       1.03773339E-33
  -25.3199997       1.13720253E-33
  -25.2000008       8.12103405E-34
  -25.0799999       2.00598886E-35
  -24.9599991      -1.09981208E-33
  -24.8400002      -2.22345161E-33
  -24.7199993      -2.91950020E-33
  -24.6000004      -2.79578162E-33
  -24.4799995      -1.66589572E-33
  -24.3600006       3.33403144E-34
  -24.2399998       2.73326093E-33
  -24.1200008       4.85012936E-33
  -24.0000000       5.99232821E-33
  -23.8799992       5.67773212E-33
  -23.7600002       3.78127843E-33
  -23.6399994       5.68457221E-34
  -23.5200005      -3.37216930E-33
  -23.3999996      -7.24323750E-33
  -23.2800007      -1.01472772E-32
  -23.1599998      -1.11819980E-32
  -23.0400009      -9.56939462E-33
  -22.9200001      -4.88333671E-33
  -22.7999992       2.61337227E-33
  -22.6800003       1.16273509E-32
  -22.5599995       1.97111418E-32
  -22.4400005       2.36109163E-32
  -22.3199997       2.02103376E-32
  -22.2000008       7.91074197E-33
  -22.0799999      -1.20484130E-32
  -21.9599991      -3.50259084E-32
  -21.8400002      -5.37500258E-32
  -21.7199993      -6.04984566E-32
  -21.6000004      -5.00189186E-32
  -21.4799995      -2.19006529E-32
  -21.3600006       1.89695151E-32
  -21.2399998       6.45095019E-32
  -21.1200008       1.07369666E-31
  -21.0000000       1.44535376E-31
  -20.8799992       1.77865837E-31
  -20.7600002       2.09773644E-31
  -20.6399994       2.34760328E-31
  -20.5200005       2.30730169E-31
  -20.3999996       1.56289850E-31
  -20.2800007      -4.00829585E-32
  -20.1599998      -3.96924993E-31
  -20.0400009      -9.07263749E-31
  -19.9200001      -1.48830299E-30
  -19.7999992      -1.96915692E-30
  -19.6800003      -2.11090837E-30
  -19.5599995      -1.66481503E-30
  -19.4400005      -4.60859989E-31
  -19.3199997       1.49570983E-30
  -19.2000008       3.95216435E-30
  -19.0799999       6.39341409E-30
  -18.9599991       8.10698167E-30
  -18.8400002       8.33022855E-30
  -18.7199993       6.45740688E-30
  -18.6000004       2.26115404E-30
  -18.4799995      -3.93126463E-30
  -18.3600006      -1.11672482E-29
  -18.2399998      -1.79481745E-29
  -18.1200008      -2.24722486E-29
  -18.0000000      -2.30134846E-29
  -17.8799992      -1.83680889E-29
  -17.7600002      -8.26968213E-30
  -17.6399994       6.33283005E-30
  -17.5200005       2.32214625E-29
  -17.3999996       3.91239879E-29
  -17.2800007       5.01900894E-29
  -17.1599998       5.26756946E-29
  -17.0400009       4.37530357E-29
  -16.9200001       2.23487679E-29
  -16.7999992      -1.01028733E-29
  -16.6800003      -4.91380893E-29
  -16.5599995      -8.71740532E-29
  -16.4400005      -1.14107618E-28
  -16.3199997      -1.18857611E-28
  -16.2000008      -9.19812887E-29
  -16.0799999      -2.91940285E-29
  -15.9600000       6.48501478E-29
  -15.8400002       1.73697985E-28
  -15.7200003       2.68735959E-28
  -15.6000004       3.12894884E-28
  -15.4799995       2.69309717E-28
  -15.3599997       1.14383748E-28
  -15.2399998      -1.47323313E-28
  -15.1199999      -4.71060750E-28
  -15.0000000      -7.68729111E-28
  -14.8800001      -9.20286172E-28
  -14.7600002      -8.02680319E-28
  -14.6400003      -3.34056834E-28
  -14.5200005       4.75925649E-28
  -14.3999996       1.48561315E-27
  -14.2799997       2.41070770E-27
  -14.1599998       2.86197908E-27
  -14.0400000       2.44078629E-27
  -13.9200001       8.84854839E-28
  -13.8000002      -1.76575459E-27
  -13.6800003      -5.03497907E-27
  -13.5600004      -7.97580669E-27
  -13.4399996      -9.29643996E-27
  -13.3199997      -7.68027582E-27
  -13.1999998      -2.27532195E-27
  -13.0799999       6.74812110E-27
  -12.9600000       1.77495737E-26
  -12.8400002       2.75058942E-26
  -12.7200003       3.16447608E-26
  -12.6000004       2.57315365E-26
  -12.4799995       6.92171210E-27
  -12.3599997      -2.41666984E-26
  -12.2399998      -6.19591754E-26
  -12.1199999      -9.55572914E-26
  -12.0000000      -1.10187241E-25
  -11.8800001      -9.08096738E-26
  -11.7600002      -2.75990630E-26
  -11.6400003       7.78320183E-26
  -11.5200005       2.07404326E-25
  -11.3999996       3.25171621E-25
  -11.2799997       3.81817553E-25
  -11.1599998       3.26248588E-25
  -11.0400000       1.23462562E-25
  -10.9200001      -2.24810098E-25
  -10.8000002      -6.62887411E-25
  -10.6800003      -1.07525597E-24
  -10.5600004      -1.29961274E-24
  -10.4399996      -1.16315706E-24
  -10.3199997      -5.40089822E-25
  -10.1999998       5.80390310E-25
  -10.0799999       2.03516844E-24
  -9.96000004       3.46291360E-24
  -9.84000015       4.33945718E-24
  -9.72000027       4.08817934E-24
  -9.60000038       2.26097771E-24
  -9.47999954      -1.24185462E-24
  -9.35999966      -5.97298341E-24
  -9.23999977      -1.08408232E-23
  -9.11999989      -1.41948073E-23
  -9.00000000      -1.41468525E-23
  -8.88000011      -9.12416323E-24
  -8.76000023       1.43467608E-24
  -8.64000034       1.64185163E-23
  -8.52000046       3.26641363E-23
  -8.39999962       4.51188017E-23
  -8.27999973       4.77341974E-23
  -8.15999985       3.51119023E-23
  -8.03999996       4.66767578E-24
  -7.92000008      -4.12039437E-23
  -7.80000019      -9.37170921E-23
  -7.67999983      -1.37862089E-22
  -7.55999994      -1.54801659E-22
  -7.44000006      -1.26657853E-22
  -7.32000017      -4.30915774E-23
  -7.19999981       9.18124221E-23
  -7.07999992       2.54607167E-22
  -6.96000004       4.02061047E-22
  -6.84000015       4.77384693E-22
  -6.71999979       4.23867460E-22
  -6.59999990       2.04440675E-22
  -6.48000002      -1.77031406E-22
  -6.36000013      -6.59384824E-22
  -6.23999977      -1.12057578E-21
  -6.11999989      -1.39374763E-21
  -6.00000000      -1.30595350E-21
  -5.88000011      -7.35921750E-22
  -5.76000023       3.21053514E-22
  -5.63999987       1.70083339E-21
  -5.51999998       3.05489614E-21
  -5.40000010       3.89351935E-21
  -5.28000021       3.69877809E-21
  -5.15999985       2.09867455E-21
  -5.03999996      -9.32126426E-22
  -4.92000008      -4.90502311E-21
  -4.80000019      -8.75988712E-21
  -4.67999983      -1.09899442E-20
  -4.55999994      -9.99084496E-21
  -4.44000006      -4.61474289E-21
  -4.32000017       5.17323521E-21
  -4.19999981       1.77260734E-20
  -4.07999992       2.94856155E-20
  -3.96000004       3.53480933E-20
  -3.83999991       2.97933364E-20
  -3.72000003       8.75773677E-21
  -3.59999990      -2.80453551E-20
  -3.48000002      -7.49651946E-20
  -3.35999990      -1.19276704E-19
  -3.24000001      -1.42015654E-19
  -3.11999989      -1.21534481E-19
  -3.00000000      -3.99670892E-20
  -2.88000011       1.08121062E-19
  -2.75999999       3.06752925E-19
  -2.64000010       5.12170383E-19
  -2.51999998       6.52669181E-19
  -2.40000010       6.38022449E-19
  -2.27999997       3.80440785E-19
  -2.16000009      -1.73790039E-19
  -2.03999996      -1.00681757E-18
  -1.91999996      -1.99512221E-18
  -1.79999995      -2.89175828E-18
  -1.67999995      -3.33935316E-18
  -1.55999994      -2.92593449E-18
  -1.44000006      -1.28833990E-18
  -1.32000005       1.74448834E-18
  -1.20000005       5.99230687E-18
  -1.08000004       1.07895164E-17
 -0.959999979       1.49303255E-17
 -0.839999974       1.67504603E-17
 -0.720000029       1.43904859E-17
 -0.600000024       6.25433867E-18
 -0.479999989      -8.37408122E-18
 -0.360000014      -2.86577286E-17
 -0.239999995      -5.16440885E-17
 -0.119999997      -7.20307554E-17
  -1.11022302E-15  -8.24874036E-17
  0.119999997      -7.47154594E-17
  0.239999995      -4.13069414E-17
  0.360000014       2.17287029E-17
  0.479999989       1.12146050E-16
  0.600000024       2.18985254E-16
  0.720000029       3.21266759E-16
  0.839999974       3.88761838E-16
  0.959999979       3.85603199E-16
   1.08000004       2.77099047E-16
   1.20000005       3.94405771E-17
   1.32000005      -3.28894555E-16
   1.44000006      -7.96208535E-16
   1.55999994      -1.29012128E-15
   1.67999995      -1.69701844E-15
   1.79999995      -1.87161268E-15
   1.91999996      -1.65869073E-15
   2.03999996      -9.27010116E-16
   2.16000009       3.87669139E-16
   2.27999997       2.23690644E-15
   2.40000010       4.42107619E-15
   2.51999998       6.57021858E-15
   2.64000010       8.15685528E-15
   2.75999999       8.55105849E-15
   2.88000011       7.12242816E-15
   3.00000000       3.38475996E-15
   3.11999989      -2.83218849E-15
   3.24000001      -1.12116339E-14
   3.35999990      -2.08178150E-14
   3.48000002      -3.00476976E-14
   3.59999990      -3.67094322E-14
   3.72000003      -3.82593940E-14
   3.83999991      -3.22072454E-14
   3.96000004      -1.66663050E-14
   4.07999992       9.01267027E-15
   4.19999981       4.36255815E-14
   4.32000017       8.36506767E-14
   4.44000006       1.23085353E-13
   4.55999994       1.53724256E-13
   4.67999983       1.65978288E-13
   4.80000019       1.50260257E-13
   4.92000008       9.88598648E-14
   5.03999996       8.10980515E-15
   5.15999985      -1.19476355E-13
   5.28000021      -2.73510679E-13
   5.40000010      -4.34946350E-13
   5.51999998      -5.76641220E-13
   5.63999987      -6.65594153E-13
   5.76000023      -6.66968596E-13
   5.88000011      -5.49728665E-13
   6.00000000      -2.93369035E-13
   6.11999989       1.05122955E-13
   6.23999977       6.25223018E-13
   6.36000013       1.21905372E-12
   6.48000002       1.81108351E-12
   6.59999990       2.30237791E-12
   6.71999979       2.57994646E-12
   6.84000015       2.53102747E-12
   6.96000004       2.06129146E-12
   7.07999992       1.11506475E-12
   7.19999981      -3.05127912E-13
   7.32000017      -2.12293442E-12
   7.44000006      -4.17985221E-12
   7.55999994      -6.23724596E-12
   7.67999983      -7.99084930E-12
   7.80000019      -9.09850667E-12
   7.92000008      -9.22008216E-12
   8.03999996      -8.06647023E-12
   8.15999985      -5.45273418E-12
   8.27999973      -1.34878621E-12
   8.39999962       4.07985494E-12
   8.52000046       1.04487669E-11
   8.64000034       1.71553327E-11
   8.76000023       2.34079874E-11
   8.88000011       2.82856551E-11
   9.00000000       3.08254880E-11
   9.11999989       3.01332778E-11
   9.23999977       2.55072630E-11
   9.35999966       1.65631831E-11
   9.47999954       3.34642036E-12
   9.60000038      -1.35834607E-11
   9.72000027      -3.31096713E-11
   9.84000015      -5.35682262E-11
   9.96000004      -7.28188343E-11
   10.0799999      -8.83800047E-11
   10.1999998      -9.76258588E-11
   10.3199997      -9.80366274E-11
   10.4399996      -8.74885997E-11
   10.5600004      -6.45636114E-11
   10.6800003      -2.88529964E-11
   10.8000002       1.87738991E-11
   10.9200001       7.59694807E-11
   11.0400000       1.38810824E-10
   11.1599998       2.01839920E-10
   11.2799997       2.58271599E-10
   11.3999996       3.00391795E-10
   11.5200005       3.20156068E-10
   11.6400003       3.09980264E-10
   11.7600002       2.63691430E-10
   11.8800001       1.77579881E-10
   12.0000000       5.14615711E-11
   12.1199999      -1.10368346E-10
   12.2399998      -2.98435443E-10
   12.3599997      -4.97798247E-10
   12.4799995      -6.88329727E-10
   12.6000004      -8.45702453E-10
   12.7200003      -9.43164546E-10
   12.8400002      -9.54118451E-10
   12.9600000      -8.55418070E-10
   13.0799999      -6.31179886E-10
   13.1999998      -2.76779405E-10
   13.3199997       1.97415903E-10
   13.4399996       7.63124952E-10
   13.5600004       1.37264311E-09
   13.6800003       1.95934091E-09
   13.8000002       2.44068210E-09
   13.9200001       2.72410294E-09
   14.0400000       2.71583200E-09
   14.1599998       2.33238961E-09
   14.2799997       1.51410573E-09
   14.3999996       2.39566200E-10
   14.5200005      -1.46050827E-09
   14.6400003      -3.49178353E-09
   14.7600002      -5.68926994E-09
   14.8800001      -7.81677301E-09
   15.0000000      -9.57467794E-09
   15.1199999      -1.06174278E-08
   15.2399998      -1.05812985E-08
   15.3599997      -9.12206666E-09
   15.4799995      -5.96094418E-09
   15.6000004      -9.35846400E-10
   15.7200003       5.94629457E-09
   15.8400002       1.44616150E-08
   15.9600000       2.41321292E-08
   16.0799999       3.42060069E-08
   16.2000008       4.36618492E-08
   16.3199997       5.12425942E-08
   16.4400005       5.55229533E-08
   16.5599995       5.50118457E-08
   16.6800003       4.82881255E-08
   16.7999992       3.41641453E-08
   16.9200001       1.18679333E-08
   17.0400009      -1.87693203E-08
   17.1599998      -5.71370649E-08
   17.2800007      -1.01699740E-07
   17.3999996      -1.49902277E-07
   17.5200005      -1.98147035E-07
   17.6399994      -2.41860846E-07
   17.7600002      -2.75665826E-07
   17.8799992      -2.93662993E-07
   18.0000000      -2.89829075E-07
   18.1200008      -2.58518014E-07
   18.2399998      -1.95049111E-07
   18.3600006      -9.63534035E-08
   18.4799995       3.83589978E-08
   18.6000004       2.06956315E-07
   18.7199993       4.03817921E-07
   18.8400002       6.19395905E-07
   18.9599991       8.39957863E-07
   19.0799999       1.04755748E-06
   19.2000008       1.22027177E-06
   19.3199997       1.33272931E-06
   19.4400005       1.35693995E-06
   19.5599995       1.26341502E-06
   19.6800003       1.02254990E-06
   19.7999992       6.06219203E-07
   19.9200001      -1.04832480E-08
   20.0400009      -8.47446017E-07
   20.1599998      -1.91777713E-06
   20.2800007      -3.22618348E-06
   20.3999996      -4.76759533E-06
   20.5200005      -6.52614017E-06
   20.6399994      -8.47455340E-06
   20.7600002      -1.05740983E-05
   20.8799992      -1.27750363E-05
   21.0000000      -1.50176875E-05
   21.1200008      -1.72340497E-05
   21.2399998      -1.93499473E-05
   21.3600006      -2.12876366E-05
   21.4799995      -2.29687575E-05
   21.6000004      -2.43175255E-05
   21.7199993      -2.52639911E-05
   21.8400002      -2.57472329E-05
   21.9599991      -2.57183274E-05
   22.0799999      -2.51429265E-05
   22.2000008      -2.40033169E-05
   22.3199997      -2.22998460E-05
   22.4400005      -2.00516333E-05
   22.5599995      -1.72964865E-05
   22.6800003      -1.40900465E-05
   22.7999992      -1.05041727E-05
   22.9200001      -6.62460434E-06
   23.0400009      -2.54804058E-06
   23.1599998       1.62126457E-06
   23.2800007       5.77523133E-06
   23.3999996       9.80584264E-06
   23.5200005       1.36090248E-05
   23.6399994       1.70883432E-05
   23.7600002       2.01583662E-05
   23.8799992       2.27475502E-05
   24.0000000       2.48005363E-05
   24.1200008       2.62797712E-05
   24.2399998       2.71664048E-05
   24.3600006       2.74604427E-05
   24.4799995       2.71801855E-05
   24.6000004       2.63609909E-05
   24.7199993       2.50534322E-05
   24.8400002       2.33209666E-05
   24.9599991       2.12372161E-05
   25.0799999       1.88829963E-05
   25.2000008       1.63431996E-05
   25.3199997       1.37037032E-05
   25.4400005       1.10483770E-05
   25.5599995       8.45632712E-06
   25.6800003       5.99945724E-06
   25.7999992       3.74042907E-06
   25.9200001       1.73106253E-06
   26.0400009       1.12177334E-08
   26.1599998      -1.39183635E-06
   26.2800007      -2.46357217E-06
   26.3999996      -3.20189952E-06
   26.5200005      -3.61644788E-06
   26.6399994      -3.72748968E-06
   26.7600002      -3.56455917E-06
   26.8799992      -3.16484125E-06
   27.0000000      -2.57139754E-06
   27.1200008      -1.83129180E-06
   27.2399998      -9.93689355E-07
   27.3600006      -1.07986821E-07
   27.4799995       7.77968467E-07
   27.6000004       1.61952278E-06
   27.7199993       2.37667928E-06
   27.8400002       3.01534692E-06
   27.9599991       3.50834716E-06
   28.0799999       3.83615634E-06
   28.2000008       3.98737166E-06
   28.3199997       3.95888719E-06
   28.4400005       3.75578452E-06
   28.5599995       3.39093117E-06
   28.6800003       2.88431011E-06
   28.7999992       2.26208408E-06
   28.9200001       1.55543364E-06
   29.0400009       7.99191014E-07
   29.1599998       3.03224823E-08
   29.2800007      -7.13697091E-07
   29.3999996      -1.39655640E-06
   29.5200005      -1.98476505E-06
   29.6399994      -2.44922558E-06
   29.7600002      -2.76665264E-06
   29.8799992      -2.92076493E-06
   30.0000000      -2.90319417E-06
   30.1200008      -2.71404406E-06
   30.2399998      -2.36206529E-06
   30.3600006      -1.86441298E-06
   30.4799995      -1.24598250E-06
   30.6000004      -5.38333722E-07
   30.7199993       2.21760672E-07
   30.8400002       9.94086349E-07
   30.9599991       1.73700016E-06
   31.0799999       2.40959071E-06
   31.2000008       2.97387419E-06
   31.3199997       3.39691019E-06
   31.4400005       3.65271603E-06
   31.5599995       3.72386330E-06
   31.6800003       3.60265358E-06
   31.7999992       3.29179147E-06
   31.9200001       2.80449490E-06
   32.0400009       2.16401531E-06
   32.1599998       1.40257362E-06
   32.2799988       5.59752436E-07
   32.4000015      -3.19581943E-07
   32.5200005      -1.18771754E-06
   32.6399994      -1.99676515E-06
   32.7599983      -2.70140185E-06
   32.8800011      -3.26152895E-06
   33.0000000      -3.64467815E-06
   33.1199989      -3.82801818E-06
   33.2400017      -3.79983044E-06
   33.3600006      -3.56034752E-06
   33.4799995      -3.12190286E-06
   33.5999985      -2.50836160E-06
   33.7200012      -1.75385935E-06
   33.8400002      -9.00919531E-07
   33.9599991       1.94661931E-09
   34.0800018       9.03010857E-07
   34.2000008       1.75030448E-06
   34.3199997       2.49461527E-06
   34.4399986       3.09232337E-06
   34.5600014       3.50789969E-06
   34.6800003       3.71591500E-06
   34.7999992       3.70244334E-06
   34.9199982       3.46577713E-06
   35.0400009       3.01641739E-06
   35.1599998       2.37635231E-06
   35.2799988       1.57767761E-06
   35.4000015       6.60650187E-07
   35.5200005      -3.28689822E-07
   35.6399994      -1.34118363E-06
   35.7599983      -2.32733009E-06
   35.8800011      -3.24000916E-06
   36.0000000      -4.03698459E-06
   36.1199989      -4.68304870E-06
   36.2400017      -5.15168904E-06
   36.3600006      -5.42620091E-06
   36.4799995      -5.50019240E-06
   36.5999985      -5.37748656E-06
   36.7200012      -5.07144887E-06
   36.8400002      -4.60379897E-06
   36.9599991      -4.00301406E-06
   37.0800018      -3.30242551E-06
   37.2000008      -2.53814915E-06
   37.3199997      -1.74697618E-06
   37.4399986      -9.64358492E-07
   37.5600014      -2.22606360E-07
   37.6800003       4.50605455E-07
   37.7999992       1.03334901E-06
   37.9199982       1.51012887E-06
   38.0400009       1.87212868E-06
   38.1599998       2.11703377E-06
   38.2799988       2.24847440E-06
   38.4000015       2.27515352E-06
   38.5200005       2.20974289E-06
   38.6399994       2.06764162E-06
   38.7599983       1.86569582E-06
   38.8800011       1.62096933E-06
   39.0000000       1.34965455E-06
   39.1199989       1.06618563E-06
   39.2400017       7.82603365E-07
   39.3600006       5.08192556E-07
   39.4799995       2.49393196E-07
   39.5999985       9.96277816E-09
   39.7200012      -2.08652096E-07
   39.8400002      -4.06789979E-07
   39.9599991      -5.85958844E-07
   40.0800018      -7.48198204E-07
   40.2000008      -8.95482742E-07
   40.3199997      -1.02922388E-06
   40.4399986      -1.14991087E-06
   40.5600014      -1.25691884E-06
   40.6800003      -1.34849165E-06
   40.7999992      -1.42189026E-06
   40.9199982      -1.47368189E-06
   41.0400009      -1.50013375E-06
   41.1599998      -1.49766402E-06
   41.2799988      -1.46330262E-06
   41.4000015      -1.39511178E-06
   41.5200005      -1.29252476E-06
   41.6399994      -1.15656883E-06
   41.7599983      -9.89951559E-07
   41.8800011      -7.97000496E-07
   42.0000000      -5.83463986E-07
   42.1199989      -3.56190895E-07
   42.2400017      -1.22717495E-07
   42.3600006       1.09202411E-07
   42.4799995       3.32084682E-07
   42.5999985       5.39178870E-07
   42.7200012       7.24872677E-07
   42.8400002       8.85005591E-07
   42.9599991       1.01706883E-06
   43.0800018       1.12027590E-06
   43.2000008       1.19550259E-06
   43.3199997       1.24510075E-06
   43.4399986       1.27260387E-06
   43.5600014       1.28234558E-06
   43.6800003       1.27902376E-06
   43.7999992       1.26724194E-06
   43.9199982       1.25106305E-06
   44.0400009       1.23361156E-06
   44.1599998       1.21675237E-06
   44.2799988       1.20087691E-06
   44.4000015       1.18481455E-06
   44.5200005       1.16588262E-06
   44.6399994       1.14007707E-06
   44.7599983       1.10239534E-06
   44.8800011       1.04727201E-06
   45.0000000       9.69096504E-07
   45.1199989       8.62776631E-07
   45.2400017       7.24303106E-07
   45.3600006       5.51269125E-07
   45.4799995       3.43300002E-07
   45.5999985       1.02354804E-07
   45.7200012      -1.67134161E-07
   45.8400002      -4.58303163E-07
   45.9599991      -7.62088121E-07
   46.0800018      -1.06763775E-06
   46.2000008      -1.36288531E-06
   46.3199997      -1.63524214E-06
   46.4399986      -1.87236174E-06
   46.5600014      -2.06291838E-06
   46.6800003      -2.19733852E-06
   46.7999992      -2.26842621E-06
   46.9199982      -2.27183614E-06
   47.0400009      -2.20635297E-06
   47.1599998      -2.07396010E-06
   47.2799988      -1.87969283E-06
   47.4000015      -1.63129096E-06
   47.5200005      -1.33868571E-06
   47.6399994      -1.01335979E-06
   47.7599983      -6.67640847E-07
   47.8800011      -3.13984401E-07
   48.0000000       3.56969956E-08
   48.1199989       3.70606188E-07
   48.2400017       6.81498989E-07
   48.3600006       9.60963234E-07
   48.4799995       1.20353400E-06
   48.5999985       1.40565623E-06
   48.7200012       1.56551926E-06
   48.8400002       1.68279871E-06
   48.9599991       1.75834725E-06
   49.0800018       1.79387428E-06
   49.2000008       1.79165022E-06
   49.3199997       1.75426578E-06
   49.4399986       1.68446240E-06
   49.5600014       1.58503929E-06
   49.6800003       1.45883303E-06
   49.7999992       1.30875196E-06
   49.9199982       1.13784472E-06
   50.0400009       9.49378034E-07
   50.1599998       7.46900639E-07
   50.2799988       5.34275557E-07
   50.4000015       3.15669809E-07
   50.5200005       9.55005532E-08
   50.6399994      -1.21658360E-07
   50.7599983      -3.31197214E-07
   50.8800011      -5.28604630E-07
   51.0000000      -7.09600158E-07
   51.1199989      -8.70252052E-07
   51.2400017      -1.00707155E-06
   51.3600006      -1.11707971E-06
   51.4799995      -1.19784954E-06
   51.5999985      -1.24752887E-06
   51.7200012      -1.26485793E-06
   51.8400002      -1.24918995E-06
   51.9599991      -1.20052823E-06
   52.0800018      -1.11958389E-06
   52.2000008      -1.00785667E-06
   52.3199997      -8.67726214E-07
   52.4399986      -7.02543389E-07
   52.5600014      -5.16696957E-07
   52.6800003      -3.15634850E-07
   52.7999992      -1.05815154E-07
   52.9199982       1.05429464E-07
   53.0400009       3.10125216E-07
   53.1599998       4.99987777E-07
   53.2799988       6.66838673E-07
   53.4000015       8.03083424E-07
   53.5200005       9.02217266E-07
   53.6399994       9.59315798E-07
   53.7599983       9.71462327E-07
   53.8800011       9.38066648E-07
   54.0000000       8.61031538E-07
   54.1199989       7.44739964E-07
   54.2400017       5.95846643E-07
   54.3600006       4.22880134E-07
   54.4799995       2.35679408E-07
   54.5999985       4.47087096E-08
   54.7200012      -1.39692176E-07
   54.8400002      -3.08055235E-07
   54.9599991      -4.52459403E-07
   55.0800018      -5.67070003E-07
   55.2000008      -6.48489845E-07
   55.3199997      -6.95887763E-07
   55.4399986      -7.10893062E-07
   55.5600014      -6.97267524E-07
   55.6800003      -6.60389446E-07
   55.7999992      -6.06604999E-07
   55.9199982      -5.42514442E-07
   56.0400009      -4.74267097E-07
   56.1599998      -4.06937943E-07
   56.2799988      -3.44050136E-07
   56.4000015      -2.87290021E-07
   56.5200005      -2.36442133E-07
   56.6399994      -1.89548075E-07
   56.7599983      -1.43269830E-07
   56.8800011      -9.34166238E-08
   57.0000000      -3.55780259E-08
   57.1199989       3.42055557E-08
   57.2400017       1.18805559E-07
   57.3600006       2.19469442E-07
   57.4799995       3.35441797E-07
   57.5999985       4.63782953E-07
   57.7200012       5.99404359E-07
   57.8400002       7.35320498E-07
   57.9599991       8.63096091E-07
   58.0800018       9.73450369E-07
   58.2000008       1.05696836E-06
   58.3199997       1.10485871E-06
   58.4399986       1.10969859E-06
   58.5600014       1.06610412E-06
   58.6800003       9.71277700E-07
   58.7999992       8.25387701E-07
   58.9199982       6.31757530E-07
   59.0400009       3.96848009E-07
   59.1599998       1.30035630E-07
   59.2799988      -1.56802216E-07
   59.4000015      -4.49871493E-07
   59.5200005      -7.34186756E-07
   59.6399994      -9.94401717E-07
   59.7599983      -1.21570554E-06
   59.8800011      -1.38474184E-06
   60.0000000      -1.49050220E-06
   60.1199989      -1.52514599E-06
   60.2400017      -1.48469223E-06
   60.3600006      -1.36953417E-06
   60.4799995      -1.18472644E-06
   60.5999985      -9.40005350E-07
   60.7200012      -6.49510071E-07
   60.8400002      -3.31192496E-07
   60.9599991      -5.92092464E-09
   61.0800018       3.03691621E-07
   61.2000008       5.74679063E-07
   61.3199997       7.85254826E-07
   61.4399986       9.16383726E-07
   61.5600014       9.53281017E-07
   61.6800003       8.86717146E-07
   61.7999992       7.14018654E-07
   61.9199982       4.39666564E-07
   62.0400009       7.54228395E-08
   62.1599998      -3.60051700E-07
   62.2799988      -8.42086536E-07
   62.4000015      -1.34135621E-06
   62.5200005      -1.82562178E-06
   62.6399994      -2.26174711E-06
   62.7599983      -2.61785294E-06
   62.8800011      -2.86545969E-06
   63.0000000      -2.98146142E-06
   63.1199989      -2.94978986E-06
   63.2400017      -2.76264655E-06
   63.3600006      -2.42120632E-06
   63.4799995      -1.93574465E-06
   63.5999985      -1.32517721E-06
   63.7200012      -6.16035493E-07
   63.8400002       1.59041832E-07
   63.9599991       9.63204798E-07
   64.0800018       1.75754246E-06
   64.1999969       2.50334188E-06
   64.3199997       3.16430578E-06
   64.4400024       3.70858152E-06
   64.5599976       4.11047540E-06
   64.6800003       4.35174752E-06
   64.8000031       4.42242163E-06
   64.9199982       4.32107799E-06
   65.0400009       4.05463334E-06
   65.1600037       3.63765639E-06
   65.2799988       3.09128382E-06
   65.4000015       2.44183229E-06
   65.5199966       1.71921192E-06
   65.6399994       9.55250471E-07
   65.7600021       1.82035791E-07
   65.8799973      -5.69630004E-07
   66.0000000      -1.27158444E-06
   66.1200027      -1.89940749E-06
   66.2399979      -2.43323552E-06
   66.3600006      -2.85826991E-06
   66.4800034      -3.16498517E-06
   66.5999985      -3.34905485E-06
   66.7200012      -3.41102736E-06
   66.8399963      -3.35580148E-06
   66.9599991      -3.19194669E-06
   67.0800018      -2.93092512E-06
   67.1999969      -2.58627551E-06
   67.3199997      -2.17281058E-06
   67.4400024      -1.70588021E-06
   67.5599976      -1.20074867E-06
   67.6800003      -6.72111867E-07
   67.8000031      -1.33776496E-07
   67.9199982       4.01497886E-07
   68.0400009       9.22009008E-07
   68.1600037       1.41700377E-06
   68.2799988       1.87649505E-06
   68.4000015       2.29105490E-06
   68.5199966       2.65163862E-06
   68.6399994       2.94949382E-06
   68.7600021       3.17619561E-06
   68.8799973       3.32384138E-06
   69.0000000       3.38540599E-06
   69.1200027       3.35524896E-06
   69.2399979       3.22972664E-06
   69.3600006       3.00785700E-06
   69.4800034       2.69194470E-06
   69.5999985       2.28809699E-06
   69.7200012       1.80653342E-06
   69.8399963       1.26162445E-06
   69.9599991       6.71604198E-07
   70.0800018       5.79390473E-08
   70.1999969      -5.55638110E-07
   70.3199997      -1.14437614E-06
   70.4400024      -1.68395468E-06
   70.5599976      -2.15201908E-06
   70.6800003      -2.52967152E-06
   70.8000031      -2.80277936E-06
   70.9199982      -2.96297026E-06
   71.0400009      -3.00821034E-06
   71.1600037      -2.94289589E-06
   71.2799988      -2.77743538E-06
   71.4000015      -2.52734935E-06
   71.5199966      -2.21196569E-06
   71.6399994      -1.85282295E-06
   71.7600021      -1.47193703E-06
   71.8799973      -1.09008795E-06
   72.0000000      -7.25291272E-07
   72.1200027      -3.91595677E-07
   72.2399979      -9.83147146E-08
   72.3600006       1.50244048E-07
   72.4800034       3.54543317E-07
   72.5999985       5.19117862E-07
   72.7200012       6.51505843E-07