  -30.0000000       0.00000000    
  -29.8799992       0.00000000    
  -29.7600002       0.00000000    
  -29.6399994       0.00000000    
  -29.5200005       0.00000000    
  -29.3999996       0.00000000    
  -29.2800007       1.19874588E-25
  -29.1599998       1.52385178E-24
  -29.0400009       9.26032851E-24
  -28.9200001       3.56793962E-23
  -28.7999992       9.63368234E-23
  -28.6800003       1.87587703E-22
  -28.5599995       2.54639605E-22
  -28.4400005       2.04179707E-22
  -28.3199997       3.89510485E-23
  -28.2000008       9.99129129E-23
  -28.0799999       1.15549245E-21
  -27.9599991       3.83686233E-21
  -27.8400002       7.06861699E-21
  -27.7199993       6.03857720E-21
  -27.6000004      -8.27681283E-21
  -27.4799995      -4.49881822E-20
  -27.3600006      -1.02549852E-19
  -27.2399998      -1.53606457E-19
  -27.1200008      -1.34486733E-19
  -27.0000000       4.51869672E-20
  -26.8799992       4.56460958E-19
  -26.7600002       1.06278119E-18
  -26.6399994       1.60977092E-18
  -26.5200005       1.55405306E-18
  -26.3999996       1.35521640E-19
  -26.2800007      -3.28644213E-18
  -26.1599998      -8.57241100E-18
  -26.0400009      -1.39436579E-17
  -25.9200001      -1.53653117E-17
  -25.7999992      -6.94943053E-18
  -25.6800003       1.67478117E-17
  -25.5599995       5.61612887E-17
  -25.4400005       1.00858020E-16
  -25.3199997       1.25366911E-16
  -25.2000008       9.14550076E-17
  -25.0799999      -3.84210969E-17
  -24.9599991      -2.75229327E-16
  -24.8400002      -5.71232190E-16
  -24.7199993      -7.97386335E-16
  -24.6000004      -7.52961256E-16
  -24.4799995      -2.27652678E-16
  -24.3600006       8.80703248E-16
  -24.2399998       2.42138640E-15
  -24.1200008       3.88429362E-15
  -24.0000000       4.41988145E-15
  -23.8799992       3.06053333E-15
  -23.7600002      -8.45773780E-16
  -23.6399994      -7.08784211E-15
  -23.5200005      -1.41478651E-14
  -23.3999996      -1.91519841E-14
  -23.2800007      -1.84638241E-14
  -23.1599998      -8.98058636E-15
  -23.0400009       1.01239987E-14
  -22.9200001       3.58087685E-14
  -22.7999992       6.05401349E-14
  -22.6800003       7.33731381E-14
  -22.5599995       6.30287177E-14
  -22.4400005       2.24875389E-14
  -22.3199997      -4.62406331E-14
  -22.2000008      -1.29113070E-13
  -22.0799999      -2.00735831E-13
  -21.9599991      -2.29806842E-13
  -21.8400002      -1.88823254E-13
  -21.7199993      -6.56873441E-14
  -21.6000004       1.26630192E-13
  -21.4799995       3.46589375E-13
  -21.3600006       5.29805637E-13
  -21.2399998       6.04445855E-13
  -21.1200008       5.13333191E-13
  -21.0000000       2.36716110E-13
  -20.8799992      -1.91900586E-13
  -20.7600002      -6.83640807E-13
  -20.6399994      -1.10932780E-12
  -20.5200005      -1.33016959E-12
  -20.3999996      -1.23719297E-12
  -20.2800007      -7.88738974E-13
  -20.1599998      -3.44048012E-14
  -20.0400009       8.83612356E-13
  -19.9200001       1.75521023E-12
  -19.7999992       2.34936202E-12
  -19.6800003       2.47284832E-12
  -19.5599995       2.02584303E-12
  -19.4400005       1.03890030E-12
  -19.3199997      -3.20434759E-13
  -19.2000008      -1.77601055E-12
  -19.0799999      -3.00208339E-12
  -18.9599991      -3.70007887E-12
  -18.8400002      -3.67441147E-12
  -18.7199993      -2.88737654E-12
  -18.6000004      -1.47705210E-12
  -18.4799995       2.69247976E-13
  -18.3600006       1.98193610E-12
  -18.2399998       3.30100118E-12
  -18.1200008       3.96886603E-12
  -18.0000000       3.89795054E-12
  -17.8799992       3.19161646E-12
  -17.7600002       2.10906900E-12
  -17.6399994       9.81049660E-13
  -17.5200005       9.93515708E-14
  -17.3999996      -3.85782498E-13
  -17.2800007      -5.24859724E-13
  -17.1599998      -5.59589593E-13
  -17.0400009      -8.39555151E-13
  -16.9200001      -1.68517218E-12
  -16.7999992      -3.23888529E-12
  -16.6800003      -5.35671030E-12
  -16.5599995      -7.58505238E-12
  -16.4400005      -9.24308720E-12
  -16.3199997      -9.59558821E-12
  -16.2000008      -8.06706178E-12
  -16.0799999      -4.42896457E-12
  -15.9600000       1.10274853E-12
  -15.8400002       7.89200476E-12
  -15.7200003       1.50156727E-11
  -15.6000004       2.14500136E-11
  -15.4799995       2.62359804E-11
  -15.3599997       2.85638665E-11
  -15.2399998       2.77643221E-11
  -15.1199999       2.32515240E-11
  -15.0000000       1.45069998E-11
  -14.8800001       1.19316796E-12
  -14.7600002      -1.65663282E-11
  -14.6400003      -3.77933622E-11
  -14.5200005      -6.02972464E-11
  -14.3999996      -8.05524467E-11
  -14.2799997      -9.39878730E-11
  -14.1599998      -9.57536828E-11
  -14.0400000      -8.18645221E-11
  -13.9200001      -5.04518580E-11
  -13.8000002      -2.75931491E-12
  -13.6800003       5.64679206E-11
  -13.5600004       1.19406318E-10
  -13.4399996       1.76367324E-10
  -13.3199997       2.17538251E-10
  -13.1999998       2.34819247E-10
  -13.0799999       2.23290594E-10
  -12.9600000       1.81958199E-10
  -12.8400002       1.13649194E-10
  -12.7200003       2.41880422E-11
  -12.6000004      -7.88125259E-11
  -12.4799995      -1.87125718E-10
  -12.3599997      -2.92687097E-10
  -12.2399998      -3.87783028E-10
  -12.1199999      -4.64689287E-10
  -12.0000000      -5.15003706E-10
  -11.8800001      -5.29041533E-10
  -11.7600002      -4.95666563E-10
  -11.6400003      -4.02818057E-10
  -11.5200005      -2.38797121E-10
  -11.3999996       5.85881994E-12
  -11.2799997       3.36290495E-10
  -11.1599998       7.51527451E-10
  -11.0400000       1.24350619E-09
  -10.9200001       1.79727544E-09
  -10.8000002       2.39252063E-09
  -10.6800003       3.00620462E-09
  -10.5600004       3.61582853E-09
  -10.4399996       4.20259472E-09
  -10.3199997       4.75374140E-09
  -10.1999998       5.26349231E-09
  -10.0799999       5.73242964E-09
  -9.96000004       6.16552853E-09
  -9.84000015       6.56947341E-09
  -9.72000027       6.95009117E-09
  -9.60000038       7.31068583E-09
  -9.47999954       7.65179031E-09
  -9.35999966       7.97243072E-09
  -9.23999977       8.27252755E-09
  -9.11999989       8.55572235E-09
  -9.00000000       8.83178419E-09
  -8.88000011       9.11780251E-09
  -8.76000023       9.43764533E-09
  -8.64000034       9.81956294E-09
  -8.52000046       1.02922195E-08
  -8.39999962       1.08798401E-08
  -8.27999973       1.15974306E-08
  -8.15999985       1.24472077E-08
  -8.03999996       1.34172540E-08
  -7.92000008       1.44830805E-08
  -7.80000019       1.56121978E-08
  -7.67999983       1.67710095E-08
  -7.55999994       1.79325905E-08
  -7.44000006       1.90834708E-08
  -7.32000017       2.02274908E-08
  -7.19999981       2.13854658E-08
  -7.07999992       2.25904895E-08
  -6.96000004       2.38800162E-08
  -6.84000015       2.52869938E-08
  -6.71999979       2.68327423E-08
  -6.59999990       2.85239192E-08
  -6.48000002       3.03546059E-08
  -6.36000013       3.23129790E-08
  -6.23999977       3.43904532E-08
  -6.11999989       3.65903254E-08
  -6.00000000       3.89331021E-08
  -5.88000011       4.14567580E-08
  -5.76000023       4.42118413E-08
  -5.63999987       4.72529429E-08
  -5.51999998       5.06291968E-08
  -5.40000010       5.43765104E-08
  -5.28000021       5.85134821E-08
  -5.15999985       6.30417532E-08
  -5.03999996       6.79499195E-08
  -4.92000008       7.32195247E-08
  -4.80000019       7.88308938E-08
  -4.67999983       8.47675281E-08
  -4.55999994       9.10180944E-08
  -4.44000006       9.75762831E-08
  -4.32000017       1.04439295E-07
  -4.19999981       1.11605964E-07
  -4.07999992       1.19075452E-07
  -3.96000004       1.26847070E-07
  -3.83999991       1.34921436E-07
  -3.72000003       1.43302614E-07
  -3.59999990       1.52001249E-07
  -3.48000002       1.61037690E-07
  -3.35999990       1.70444793E-07
  -3.24000001       1.80269339E-07
  -3.11999989       1.90571342E-07
  -3.00000000       2.01420633E-07
  -2.88000011       2.12890995E-07
  -2.75999999       2.25052204E-07
  -2.64000010       2.37961743E-07
  -2.51999998       2.51658008E-07
  -2.40000010       2.66157031E-07
  -2.27999997       2.81453509E-07
  -2.16000009       2.97526526E-07
  -2.03999996       3.14348938E-07
  -1.91999996       3.31897837E-07
  -1.79999995       3.50163845E-07
  -1.67999995       3.69157306E-07
  -1.55999994       3.88909996E-07
  -1.44000006       4.09472278E-07
  -1.32000005       4.30906709E-07
  -1.20000005       4.53280194E-07
  -1.08000004       4.76656055E-07
 -0.959999979       5.01087811E-07
 -0.839999974       5.26616532E-07
 -0.720000029       5.53270297E-07
 -0.600000024       5.81069060E-07
 -0.479999989       6.10030554E-07
 -0.360000014       6.40179110E-07
 -0.239999995       6.71553266E-07
 -0.119999997       7.04210436E-07
  -1.11022302E-15   7.38226674E-07
  0.119999997       7.73688953E-07
  0.239999995       8.10683503E-07
  0.360000014       8.49279274E-07
  0.479999989       8.89514467E-07
  0.600000024       9.31388797E-07
  0.720000029       9.74865202E-07
  0.839999974       1.01988360E-06
  0.959999979       1.06637981E-06
   1.08000004       1.11430700E-06
   1.20000005       1.16365197E-06
   1.32000005       1.21443998E-06
   1.44000006       1.26672694E-06
   1.55999994       1.32058301E-06
   1.67999995       1.37607162E-06
   1.79999995       1.43323393E-06
   1.91999996       1.49208063E-06
   2.03999996       1.55259590E-06
   2.16000009       1.61474827E-06
   2.27999997       1.67850510E-06
   2.40000010       1.74384149E-06
   2.51999998       1.81074336E-06
   2.64000010       1.87920273E-06
   2.75999999       1.94921040E-06
   2.88000011       2.02074966E-06
   3.00000000       2.09379800E-06
   3.11999989       2.16833200E-06
   3.24000001       2.24433848E-06
   3.35999990       2.32182219E-06
   3.48000002       2.40080385E-06
   3.59999990       2.48131118E-06
   3.72000003       2.56335829E-06
   3.83999991       2.64692744E-06
   3.96000004       2.73195360E-06
   4.07999992       2.81832126E-06
   4.19999981       2.90587377E-06
   4.32000017       2.99443286E-06
   4.44000006       3.08381846E-06
   4.55999994       3.17386639E-06
   4.67999983       3.26443455E-06
   4.80000019       3.35539812E-06
   4.92000008       3.44664340E-06
   5.03999996       3.53805558E-06
   5.15999985       3.62951391E-06
   5.28000021       3.72089016E-06
   5.40000010       3.81204950E-06
   5.51999998       3.90284913E-06
   5.63999987       3.99313512E-06
   5.76000023       4.08272717E-06
   5.88000011       4.17140791E-06
   6.00000000       4.25890676E-06
   6.11999989       4.34489993E-06
   6.23999977       4.42901728E-06
   6.36000013       4.51085634E-06
   6.48000002       4.59000830E-06
   6.59999990       4.66607935E-06
   6.71999979       4.73869795E-06
   6.84000015       4.80752351E-06
   6.96000004       4.87223451E-06
   7.07999992       4.93252128E-06
   7.19999981       4.98806821E-06
   7.32000017       5.03854335E-06
   7.44000006       5.08358926E-06
   7.55999994       5.12281576E-06
   7.67999983       5.15579677E-06
   7.80000019       5.18206525E-06
   7.92000008       5.20110916E-06
   8.03999996       5.21237916E-06
   8.15999985       5.21529500E-06
   8.27999973       5.20926187E-06
   8.39999962       5.19368268E-06
   8.52000046       5.16796808E-06
   8.64000034       5.13153464E-06
   8.76000023       5.08379753E-06
   8.88000011       5.02414969E-06
   9.00000000       4.95194490E-06
   9.11999989       4.86648651E-06
   9.23999977       4.76703008E-06
   9.35999966       4.65279800E-06
   9.47999954       4.52299992E-06
   9.60000038       4.37685230E-06
   9.72000027       4.21358436E-06
   9.84000015       4.03243030E-06
   9.96000004       3.83260613E-06
   10.0799999       3.61328216E-06
   10.1999998       3.37356119E-06
   10.3199997       3.11247368E-06
   10.4399996       2.82898964E-06
   10.5600004       2.52204450E-06
   10.6800003       2.19057233E-06
   10.8000002       1.83352881E-06
   10.9200001       1.44990031E-06
   11.0400000       1.03869388E-06
   11.1599998       5.98912095E-07
   11.2799997       1.29525475E-07
   11.3999996      -3.70551049E-07
   11.5200005      -9.02468230E-07
   11.6400003      -1.46743889E-06
   11.7600002      -2.06672189E-06
   11.8800001      -2.70160490E-06
   12.0000000      -3.37339293E-06
   12.1199999      -4.08340111E-06
   12.2399998      -4.83295980E-06
   12.3599997      -5.62341984E-06
   12.4799995      -6.45615410E-06
   12.6000004      -7.33256138E-06
   12.7200003      -8.25405277E-06
   12.8400002      -9.22205709E-06
   12.9600000      -1.02380145E-05
   13.0799999      -1.13033893E-05
   13.1999998      -1.24196786E-05
   13.3199997      -1.35884238E-05
   13.4399996      -1.48112149E-05
   13.5600004      -1.60896889E-05
   13.6800003      -1.74255110E-05
   13.8000002      -1.88203649E-05
   13.9200001      -2.02759293E-05
   14.0400000      -2.17938832E-05
   14.1599998      -2.33759038E-05
   14.2799997      -2.50236935E-05
   14.3999996      -2.67389896E-05
   14.5200005      -2.85235619E-05
   14.6400003      -3.03792149E-05
   14.7600002      -3.23077838E-05
   14.8800001      -3.43111024E-05
   15.0000000      -3.63909967E-05
   15.1199999      -3.85493113E-05
   15.2399998      -4.07879052E-05
   15.3599997      -4.31086992E-05
   15.4799995      -4.55136906E-05
   15.6000004      -4.80049384E-05
   15.7200003      -5.05845492E-05
   15.8400002      -5.32546364E-05
   15.9600000      -5.60172775E-05
   16.0799999      -5.88744915E-05
   16.2000008      -6.18282211E-05
   16.3199997      -6.48803907E-05
   16.4400005      -6.80329176E-05
   16.5599995      -7.12878027E-05
   16.6800003      -7.46471051E-05
   16.7999992      -7.81129274E-05
   16.9200001      -8.16874453E-05
   17.0400009      -8.53728125E-05
   17.1599998      -8.91711825E-05
   17.2800007      -9.30846436E-05
   17.3999996      -9.71152476E-05
   17.5200005      -1.01265054E-04
   17.6399994      -1.05536092E-04
   17.7600002      -1.09930443E-04
   17.8799992      -1.14450166E-04
   18.0000000      -1.19097305E-04
   18.1200008      -1.23873891E-04
   18.2399998      -1.28781860E-04
   18.3600006      -1.33823109E-04
   18.4799995      -1.38999516E-04
   18.6000004      -1.44312929E-04
   18.7199993      -1.49765197E-04
   18.8400002      -1.55358153E-04
   18.9599991      -1.61093616E-04
   19.0799999      -1.66973303E-04
   19.2000008      -1.72998873E-04
   19.3199997      -1.79171839E-04
   19.4400005      -1.85493671E-04
   19.5599995      -1.91965766E-04
   19.6800003      -1.98589492E-04
   19.7999992      -2.05366203E-04
   19.9200001      -2.12297222E-04
   20.0400009      -2.19383801E-04
   20.1599998      -2.26627104E-04
   20.2800007      -2.34028106E-04
   20.3999996      -2.41587681E-04
   20.5200005      -2.49306555E-04
   20.6399994      -2.57185282E-04
   20.7600002      -2.65224371E-04
   20.8799992      -2.73424259E-04
   21.0000000      -2.81785149E-04
   21.1200008      -2.90307333E-04
   21.2399998      -2.98990781E-04
   21.3600006      -3.07835406E-04
   21.4799995      -3.16840975E-04
   21.6000004      -3.26007081E-04
   21.7199993      -3.35333170E-04
   21.8400002      -3.44818545E-04
   21.9599991      -3.54462245E-04
   22.0799999      -3.64263251E-04
   22.2000008      -3.74220312E-04
   22.3199997      -3.84331855E-04
   22.4400005      -3.94596194E-04
   22.5599995      -4.05011378E-04
   22.6800003      -4.15575283E-04
   22.7999992      -4.26285638E-04
   22.9200001      -4.37139999E-04
   23.0400009      -4.48135805E-04
   23.1599998      -4.59270290E-04
   23.2800007      -4.70540370E-04
   23.3999996      -4.81942785E-04
   23.5200005      -4.93473897E-04
   23.6399994      -5.05129690E-04
   23.7600002      -5.16906090E-04
   23.8799992      -5.28798671E-04
   24.0000000      -5.40802896E-04
   24.1200008      -5.52913989E-04
   24.2399998      -5.65127004E-04
   24.3600006      -5.77436702E-04
   24.4799995      -5.89837495E-04
   24.6000004      -6.02323504E-04
   24.7199993      -6.14888733E-04
   24.8400002      -6.27526664E-04
   24.9599991      -6.40230835E-04
   25.0799999      -6.52994378E-04
   25.2000008      -6.65810483E-04
   25.3199997      -6.78671815E-04
   25.4400005      -6.91571040E-04
   25.5599995      -7.04500300E-04
   25.6800003      -7.17451505E-04
   25.7999992      -7.30416214E-04
   25.9200001      -7.43385928E-04
   26.0400009      -7.56351685E-04
   26.1599998      -7.69304519E-04
   26.2800007      -7.82235351E-04
   26.3999996      -7.95134867E-04
   26.5200005      -8.07993347E-04
   26.6399994      -8.20801011E-04
   26.7600002      -8.33547849E-04
   26.8799992      -8.46223615E-04
   27.0000000      -8.58817657E-04
   27.1200008      -8.71319498E-04
   27.2399998      -8.83718429E-04
   27.3600006      -8.96003621E-04
   27.4799995      -9.08164016E-04
   27.6000004      -9.20188671E-04
   27.7199993      -9.32066352E-04
   27.8400002      -9.43785708E-04
   27.9599991      -9.55335156E-04
   28.0799999      -9.66703112E-04
   28.2000008      -9.77878459E-04
   28.3199997      -9.88849206E-04
   28.4400005      -9.99603770E-04
   28.5599995      -1.01013063E-03
   28.6800003      -1.02041801E-03
   28.7999992      -1.03045406E-03
   28.9200001      -1.04022690E-03
   29.0400009      -1.04972476E-03
   29.1599998      -1.05893612E-03
   29.2800007      -1.06784946E-03
   29.3999996      -1.07645337E-03
   29.5200005      -1.08473655E-03
   29.6399994      -1.09268783E-03
   29.7600002      -1.10029615E-03
   29.8799992      -1.10755058E-03
   30.0000000      -1.11444027E-03
   30.1200008      -1.12095475E-03
   30.2399998      -1.12708355E-03
   30.3600006      -1.13281677E-03
   30.4799995      -1.13814464E-03
   30.6000004      -1.14305760E-03
   30.7199993      -1.14754622E-03
   30.8400002      -1.15160132E-03
   30.9599991      -1.15521427E-03
   31.0799999      -1.15837634E-03
   31.2000008      -1.16107985E-03
   31.3199997      -1.16331666E-03
   31.4400005      -1.16507988E-03
   31.5599995      -1.16636266E-03
   31.6800003      -1.16715836E-03
   31.7999992      -1.16746104E-03
   31.9200001      -1.16726512E-03
   32.0400009      -1.16656546E-03
   32.1599998      -1.16535730E-03
   32.2799988      -1.16363622E-03
   32.4000015      -1.16139872E-03
   32.5200005      -1.15864177E-03
   32.6399994      -1.15536258E-03
   32.7599983      -1.15155929E-03
   32.8800011      -1.14723039E-03
   33.0000000      -1.14237471E-03
   33.1199989      -1.13699189E-03
   33.2400017      -1.13108195E-03
   33.3600006      -1.12464547E-03
   33.4799995      -1.11768337E-03
   33.5999985      -1.11019763E-03
   33.7200012      -1.10219058E-03
   33.8400002      -1.09366514E-03
   33.9599991      -1.08462537E-03
   34.0800018      -1.07507512E-03
   34.2000008      -1.06501940E-03
   34.3199997      -1.05446356E-03
   34.4399986      -1.04341353E-03
   34.5600014      -1.03187596E-03
   34.6800003      -1.01985771E-03
   34.7999992      -1.00736658E-03
   34.9199982      -9.94411181E-04
   35.0400009      -9.81000252E-04
   35.1599998      -9.67143569E-04
   35.2799988      -9.52850853E-04
   35.4000015      -9.38132813E-04
   35.5200005      -9.23000509E-04
   35.6399994      -9.07465525E-04
   35.7599983      -8.91540083E-04
   35.8800011      -8.75236641E-04
   36.0000000      -8.58568354E-04
   36.1199989      -8.41548783E-04
   36.2400017      -8.24192015E-04
   36.3600006      -8.06512369E-04
   36.4799995      -7.88524747E-04
   36.5999985      -7.70244282E-04
   36.7200012      -7.51686632E-04
   36.8400002      -7.32867687E-04
   36.9599991      -7.13804096E-04
   37.0800018      -6.94512390E-04
   37.2000008      -6.75009505E-04
   37.3199997      -6.55312790E-04
   37.4399986      -6.35439530E-04
   37.5600014      -6.15407364E-04
   37.6800003      -5.95233985E-04
   37.7999992      -5.74937381E-04
   37.9199982      -5.54535713E-04
   38.0400009      -5.34047140E-04
   38.1599998      -5.13490173E-04
   38.2799988      -4.92883322E-04
   38.4000015      -4.72245069E-04
   38.5200005      -4.51593951E-04
   38.6399994      -4.30948421E-04
   38.7599983      -4.10326786E-04
   38.8800011      -3.89747322E-04
   39.0000000      -3.69228132E-04
   39.1199989      -3.48787202E-04
   39.2400017      -3.28442489E-04
   39.3600006      -3.08211689E-04
   39.4799995      -2.88112496E-04
   39.5999985      -2.68162315E-04
   39.7200012      -2.48378317E-04
   39.8400002      -2.28777440E-04
   39.9599991      -2.09376303E-04
   40.0800018      -1.90191102E-04
   40.2000008      -1.71237654E-04
   40.3199997      -1.52531327E-04
   40.4399986      -1.34087037E-04
   40.5600014      -1.15919298E-04
   40.6800003      -9.80421974E-05
   40.7999992      -8.04694209E-05
   40.9199982      -6.32141964E-05
   41.0400009      -4.62893004E-05
   41.1599998      -2.97070164E-05
   41.2799988      -1.34791007E-05
   41.4000015       2.38323560E-06
   41.5200005       1.78693626E-05
   41.6399994       3.29691975E-05
   41.7599983       4.76732421E-05
   41.8800011       6.19725688E-05
   42.0000000       7.58588358E-05
   42.1199989       8.93243196E-05
   42.2400017       1.02361933E-04
   42.3600006       1.14965223E-04
   42.4799995       1.27128384E-04
   42.5999985       1.38846299E-04
   42.7200012       1.50114443E-04
   42.8400002       1.60928947E-04
   42.9599991       1.71286578E-04
   43.0800018       1.81184703E-04
   43.2000008       1.90621344E-04
   43.3199997       1.99595146E-04
   43.4399986       2.08105354E-04
   43.5600014       2.16151908E-04
   43.6800003       2.23735304E-04
   43.7999992       2.30856676E-04
   43.9199982       2.37517714E-04
   44.0400009       2.43720671E-04
   44.1599998       2.49468372E-04
   44.2799988       2.54764105E-04
   44.4000015       2.59611814E-04
   44.5200005       2.64015922E-04
   44.6399994       2.67981522E-04
   44.7599983       2.71514175E-04
   44.8800011       2.74620019E-04
   45.0000000       2.77305691E-04
   45.1199989       2.79578235E-04
   45.2400017       2.81445216E-04
   45.3600006       2.82914552E-04
   45.4799995       2.83994596E-04
   45.5999985       2.84694048E-04
   45.7200012       2.85022019E-04
   45.8400002       2.84987909E-04
   45.9599991       2.84601469E-04
   46.0800018       2.83872680E-04
   46.2000008       2.82811787E-04
   46.3199997       2.81429297E-04
   46.4399986       2.79736036E-04
   46.5600014       2.77743005E-04
   46.6800003       2.75461527E-04
   46.7999992       2.72903155E-04
   46.9199982       2.70079501E-04
   47.0400009       2.67002441E-04
   47.1599998       2.63683847E-04
   47.2799988       2.60135625E-04
   47.4000015       2.56369705E-04
   47.5200005       2.52398109E-04
   47.6399994       2.48232856E-04
   47.7599983       2.43886083E-04
   47.8800011       2.39369881E-04
   48.0000000       2.34696374E-04
   48.1199989       2.29877653E-04
   48.2400017       2.24925607E-04
   48.3600006       2.19852023E-04
   48.4799995       2.14668456E-04
   48.5999985       2.09386344E-04
   48.7200012       2.04016935E-04
   48.8400002       1.98571361E-04
   48.9599991       1.93060696E-04
   49.0800018       1.87495898E-04
   49.2000008       1.81887764E-04
   49.3199997       1.76246904E-04
   49.4399986       1.70583691E-04
   49.5600014       1.64908226E-04
   49.6800003       1.59230272E-04
   49.7999992       1.53559231E-04
   49.9199982       1.47904240E-04
   50.0400009       1.42274119E-04
   50.1599998       1.36677394E-04
   50.2799988       1.31122288E-04
   50.4000015       1.25616745E-04
   50.5200005       1.20168384E-04
   50.6399994       1.14784547E-04
   50.7599983       1.09472232E-04
   50.8800011       1.04238126E-04
   51.0000000       9.90886401E-05
   51.1199989       9.40298632E-05
   51.2400017       8.90675874E-05
   51.3600006       8.42072259E-05
   51.4799995       7.94538282E-05
   51.5999985       7.48120437E-05
   51.7200012       7.02861144E-05
   51.8400002       6.58799036E-05
   51.9599991       6.15969693E-05
   52.0800018       5.74405494E-05
   52.2000008       5.34136307E-05
   52.3199997       4.95189306E-05
   52.4399986       4.57588903E-05
   52.5600014       4.21356381E-05
   52.6800003       3.86509346E-05
   52.7999992       3.53061878E-05
   52.9199982       3.21024600E-05
   53.0400009       2.90404987E-05
   53.1599998       2.61207897E-05
   53.2799988       2.33435821E-05
   53.4000015       2.07088906E-05
   53.5200005       1.82164895E-05
   53.6399994       1.58658859E-05
   53.7599983       1.36563131E-05
   53.8800011       1.15867297E-05
   54.0000000       9.65585605E-06
   54.1199989       7.86220426E-06
   54.2400017       6.20412584E-06
   54.3600006       4.67981954E-06
   54.4799995       3.28733381E-06
   54.5999985       2.02454066E-06
   54.7200012       8.89123328E-07
   54.8400002      -1.21425671E-07
   54.9599991      -1.00978116E-06
   55.0800018      -1.77875006E-06
   55.2000008      -2.43123213E-06
   55.3199997      -2.97020279E-06
   55.4399986      -3.39872531E-06
   55.5600014      -3.71997726E-06
   55.6800003      -3.93728624E-06
   55.7999992      -4.05413766E-06
   55.9199982      -4.07414655E-06
   56.0400009      -4.00100816E-06
   56.1599998      -3.83842553E-06
   56.2799988      -3.59006231E-06
   56.4000015      -3.25952919E-06
   56.5200005      -2.85040733E-06
   56.6399994      -2.36629444E-06
   56.7599983      -1.81084738E-06
   56.8800011      -1.18779201E-06
   57.0000000      -5.00894316E-07
   57.1199989       2.46093947E-07
   57.2400017       1.04949481E-06
   57.3600006       1.90573201E-06
   57.4799995       2.81131793E-06
   57.5999985       3.76280741E-06
   57.7200012       4.75673505E-06
   57.8400002       5.78957906E-06
   57.9599991       6.85776922E-06
   58.0800018       7.95772939E-06
   58.2000008       9.08595484E-06
   58.3199997       1.02390732E-05
   58.4399986       1.14138857E-05
   58.5600014       1.26073473E-05
   58.6800003       1.38165296E-05
   58.7999992       1.50385695E-05
   58.9199982       1.62706310E-05
   59.0400009       1.75099158E-05
   59.1599998       1.87537062E-05
   59.2799988       1.99994083E-05
   59.4000015       2.12445902E-05
   59.5200005       2.24869764E-05
   59.6399994       2.37244149E-05
   59.7599983       2.49548139E-05
   59.8800011       2.61760797E-05
   60.0000000       2.73861006E-05
   60.1199989       2.85827809E-05
   60.2400017       2.97640872E-05
   60.3600006       3.09281313E-05
   60.4799995       3.20732252E-05
   60.5999985       3.31978990E-05
   60.7200012       3.43008651E-05
   60.8400002       3.53809555E-05
   60.9599991       3.64370462E-05
   61.0800018       3.74680021E-05
   61.2000008       3.84726809E-05
   61.3199997       3.94499693E-05
   61.4399986       4.03988561E-05
   61.5600014       4.13184898E-05
   61.6800003       4.22082048E-05
   61.7999992       4.30675173E-05
   61.9199982       4.38960378E-05
   62.0400009       4.46934282E-05
   62.1599998       4.54593246E-05
   62.2799988       4.61933232E-05
   62.4000015       4.68950348E-05
   62.5200005       4.75641245E-05
   62.6399994       4.82003888E-05
   62.7599983       4.88037804E-05
   62.8800011       4.93744083E-05
   63.0000000       4.99124653E-05
   63.1199989       5.04181662E-05
   63.2400017       5.08917001E-05
   63.3600006       5.13332125E-05
   63.4799995       5.17428525E-05
   63.5999985       5.21208276E-05
   63.7200012       5.24674688E-05
   63.8400002       5.27832708E-05
   63.9599991       5.30688703E-05
   64.0800018       5.33249804E-05
   64.1999969       5.35523104E-05
   64.3199997       5.37515043E-05
   64.4400024       5.39231223E-05
   64.5599976       5.40676519E-05
   64.6800003       5.41855698E-05
   64.8000031       5.42774069E-05
   64.9199982       5.43437855E-05
   65.0400009       5.43854221E-05
   65.1600037       5.44030700E-05
   65.2799988       5.43975111E-05
   65.4000015       5.43694878E-05
   65.5199966       5.43197020E-05
   65.6399994       5.42488415E-05
   65.7600021       5.41576228E-05
   65.8799973       5.40468318E-05
   66.0000000       5.39173343E-05
   66.1200027       5.37700544E-05
   66.2399979       5.36059342E-05
   66.3600006       5.34258434E-05
   66.4800034       5.32305639E-05
   66.5999985       5.30207653E-05
   66.7200012       5.27970406E-05
   66.8399963       5.25599571E-05
   66.9599991       5.23101226E-05
   67.0800018       5.20482208E-05
   67.1999969       5.17750159E-05
   67.3199997       5.14913299E-05
   67.4400024       5.11979706E-05
   67.5599976       5.08957237E-05
   67.6800003       5.05852877E-05
   67.8000031       5.02673065E-05
   67.9199982       4.99423695E-05
   68.0400009       4.96110661E-05
   68.1600037       4.92740110E-05
   68.2799988       4.89318445E-05
   68.4000015       4.85852106E-05
   68.5199966       4.82347423E-05
   68.6399994       4.78810034E-05
   68.7600021       4.75245070E-05
   68.8799973       4.71656895E-05
   69.0000000       4.68049548E-05
   69.1200027       4.64426957E-05
   69.2399979       4.60793235E-05
   69.3600006       4.57152782E-05
   69.4800034       4.53510111E-05
   69.5999985       4.49869804E-05
   69.7200012       4.46235972E-05
   69.8399963       4.42612218E-05
   69.9599991       4.39001706E-05
   70.0800018       4.35407128E-05
   70.1999969       4.31831213E-05
   70.3199997       4.28276835E-05
   70.4400024       4.24747195E-05
   70.5599976       4.21245786E-05
   70.6800003       4.17776027E-05
   70.8000031       4.14341157E-05
   70.9199982       4.10943685E-05
   71.0400009       4.07585394E-05
   71.1600037       4.04267303E-05
   71.2799988       4.00989884E-05
   71.4000015       3.97753538E-05
   71.5199966       3.94558629E-05
   71.6399994       3.91405956E-05
   71.7600021       3.88296612E-05
   71.8799973       3.85231870E-05
   72.0000000       3.82213075E-05
   72.1200027       3.79241392E-05
   72.2399979       3.76317694E-05
   72.3600006       3.73442563E-05
   72.4800034       3.70616508E-05
   72.5999985       3.67839966E-05
   72.7200012       3.65113265E-05