  -30.0000000       0.00000000    
  -29.8799992       0.00000000    
  -29.7600002       0.00000000    
  -29.6399994       0.00000000    
  -29.5200005       0.00000000    
  -29.3999996       0.00000000    
  -29.2800007       0.00000000    
  -29.1599998       0.00000000    
  -29.0400009       0.00000000    
  -28.9200001       4.72237582E-43
  -28.7999992      -1.30801403E-40
  -28.6800003      -4.88206500E-39
  -28.5599995      -6.58243194E-38
  -28.4400005      -5.02486437E-37
  -28.3199997      -2.51690800E-36
  -28.2000008      -8.60645177E-36
  -28.0799999      -1.84539814E-35
  -27.9599991      -8.64807693E-36
  -27.8400002       1.17273940E-34
  -27.7199993       5.91044391E-34
  -27.6000004       1.74268029E-33
  -27.4799995       3.62754140E-33
  -27.3600006       5.10366586E-33
  -27.2399998       2.60777746E-33
  -27.1200008      -1.01497296E-32
  -27.0000000      -3.95486875E-32
  -26.8799992      -8.53129954E-32
  -26.7600002      -1.31918513E-31
  -26.6399994      -1.44186431E-31
  -26.5200005      -7.08452813E-32
  -26.3999996       1.53205035E-31
  -26.2800007       6.28832114E-31
  -26.1599998       1.54077480E-30
  -26.0400009       3.13700905E-30
  -25.9200001       5.39132453E-30
  -25.7999992       7.06098128E-30
  -25.6800003       4.24810493E-30
  -25.5599995      -1.03405834E-29
  -25.4400005      -4.47798934E-29
  -25.3199997      -9.88377377E-29
  -25.2000008      -1.48092578E-28
  -25.0799999      -1.28668864E-28
  -24.9599991       5.90513774E-29
  -24.8400002       5.02788423E-28
  -24.7199993       1.17211085E-27
  -24.6000004       1.77647393E-27
  -24.4799995       1.67165461E-27
  -24.3600006      -4.50786774E-29
  -24.2399998      -4.11068484E-27
  -24.1200008      -1.03100137E-26
  -24.0000000      -1.65224636E-26
  -23.8799992      -1.80890628E-26
  -23.7600002      -8.22060009E-27
  -23.6399994       1.98047598E-26
  -23.5200005       6.82036073E-26
  -23.3999996       1.28273529E-25
  -23.2800007       1.73529789E-25
  -23.1599998       1.55903838E-25
  -23.0400009       1.11688622E-26
  -22.9200001      -3.17944964E-25
  -22.7999992      -8.33461622E-25
  -22.6800003      -1.41034840E-24
  -22.5599995      -1.72468699E-24
  -22.4400005      -1.23848342E-24
  -22.3199997       6.72439432E-25
  -22.2000008       4.36624414E-24
  -22.0799999       9.35780490E-24
  -21.9599991       1.36940337E-23
  -21.8400002       1.37006648E-23
  -21.7199993       4.69748841E-24
  -21.6000004      -1.68135384E-23
  -21.4799995      -4.95489088E-23
  -21.3600006      -8.35701636E-23
  -21.2399998      -9.85454320E-23
  -21.1200008      -6.72865283E-23
  -21.0000000       3.30924972E-23
  -20.8799992       2.03101896E-22
  -20.7600002       4.01676108E-22
  -20.6399994       5.36970070E-22
  -20.5200005       4.80590825E-22
  -20.3999996       1.14310502E-22
  -20.2800007      -5.94787592E-22
  -20.1599998      -1.51447258E-21
  -20.0400009      -2.30535681E-21
  -19.9200001      -2.46527974E-21
  -19.7999992      -1.49058269E-21
  -19.6800003       8.61472964E-22
  -19.5599995       4.28938828E-21
  -19.4400005       7.78027586E-21
  -19.3199997       9.70954700E-21
  -19.2000008       8.29845766E-21
  -19.0799999       2.38298779E-21
  -18.9599991      -7.73271540E-21
  -18.8400002      -1.97126720E-20
  -18.7199993      -2.93131839E-20
  -18.6000004      -3.14266982E-20
  -18.4799995      -2.19298489E-20
  -18.3600006       2.03600229E-22
  -18.2399998       3.13755132E-20
  -18.1200008       6.32760469E-20
  -18.0000000       8.46820013E-20
  -17.8799992       8.48482323E-20
  -17.7600002       5.74170814E-20
  -17.6399994       3.34253386E-21
  -17.5200005      -6.84300154E-20
  -17.3999996      -1.42845174E-19
  -17.2800007      -2.02250339E-19
  -17.1599998      -2.29761642E-19
  -17.0400009      -2.10948207E-19
  -16.9200001      -1.33824407E-19
  -16.7999992       1.06976207E-20
  -16.6800003       2.24394222E-19
  -16.5599995       4.90948289E-19
  -16.4400005       7.60692042E-19
  -16.3199997       9.39149745E-19
  -16.2000008       8.92780068E-19
  -16.0799999       4.84659183E-19
  -15.9600000      -3.57081256E-19
  -15.8400002      -1.55401119E-18
  -15.7200003      -2.81259999E-18
  -15.6000004      -3.62956761E-18
  -15.4799995      -3.40827281E-18
  -15.3599997      -1.69018301E-18
  -15.2399998       1.55361394E-18
  -15.1199999       5.68626866E-18
  -15.0000000       9.36961046E-18
  -14.8800001       1.08435487E-17
  -14.7600002       8.53157972E-18
  -14.6400003       1.82906632E-18
  -14.5200005      -8.21883513E-18
  -14.3999996      -1.87112440E-17
  -14.2799997      -2.54407586E-17
  -14.1599998      -2.42372919E-17
  -14.0400000      -1.27932399E-17
  -13.9200001       7.67695160E-18
  -13.8000002       3.17404156E-17
  -13.6800003       5.06471042E-17
  -13.5600004       5.49584589E-17
  -13.4399996       3.83110322E-17
  -13.3199997       1.04196478E-18
  -13.1999998      -4.79187946E-17
  -13.0799999      -9.22029774E-17
  -12.9600000      -1.12587527E-16
  -12.8400002      -9.40423160E-17
  -12.7200003      -3.29814116E-17
  -12.6000004       5.82174811E-17
  -12.4799995       1.51977576E-16
  -12.3599997       2.12585854E-16
  -12.2399998       2.08247113E-16
  -12.1199999       1.24490140E-16
  -12.0000000      -2.61027976E-17
  -11.8800001      -2.02546356E-16
  -11.7600002      -3.44903796E-16
  -11.6400003      -3.93211832E-16
  -11.5200005      -3.10514973E-16
  -11.3999996      -1.01857406E-16
  -11.2799997       1.79091855E-16
  -11.1599998       4.41031447E-16
  -11.0400000       5.83080117E-16
  -10.9200001       5.32464657E-16
  -10.8000002       2.78961328E-16
  -10.6800003      -1.08382935E-16
  -10.5600004      -4.92935959E-16
  -10.4399996      -7.12345285E-16
  -10.3199997      -6.40634788E-16
  -10.1999998      -2.50050161E-16
  -10.0799999       3.52709469E-16
  -9.96000004       9.37141794E-16
  -9.84000015       1.21409520E-15
  -9.72000027       9.42979651E-16
  -9.60000038       4.85387003E-17
  -9.47999954      -1.29740682E-15
  -9.35999966      -2.67120289E-15
  -9.23999977      -3.49178766E-15
  -9.11999989      -3.20339729E-15
  -9.00000000      -1.49902078E-15
  -8.88000011       1.48964476E-15
  -8.76000023       5.11457636E-15
  -8.64000034       8.30113634E-15
  -8.52000046       9.81123260E-15
  -8.39999962       8.62545678E-15
  -8.27999973       4.33741008E-15
  -8.15999985      -2.57063213E-15
  -8.03999996      -1.06843127E-14
  -7.92000008      -1.79013095E-14
  -7.80000019      -2.19330152E-14
  -7.67999983      -2.09471383E-14
  -7.55999994      -1.41747584E-14
  -7.44000006      -2.29501184E-15
  -7.32000017       1.25426589E-14
  -7.19999981       2.71038498E-14
  -7.07999992       3.77906324E-14
  -6.96000004       4.15236828E-14
  -6.84000015       3.65513351E-14
  -6.71999979       2.29608795E-14
  -6.59999990       2.74528503E-15
  -6.48000002      -2.05952148E-14
  -6.36000013      -4.28004664E-14
  -6.23999977      -5.97284199E-14
  -6.11999989      -6.81159840E-14
  -6.00000000      -6.60333740E-14
  -5.88000011      -5.29730407E-14
  -5.76000023      -2.96697074E-14
  -5.63999987       2.13870779E-15
  -5.51999998       3.97848224E-14
  -5.40000010       7.94707860E-14
  -5.28000021       1.15895791E-13
  -5.15999985       1.42043671E-13
  -5.03999996       1.49590748E-13
  -4.92000008       1.30315382E-13
  -4.80000019       7.85680182E-14
  -4.67999983      -5.64099675E-15
  -4.55999994      -1.13895208E-13
  -4.44000006      -2.28222579E-13
  -4.32000017      -3.22672661E-13
  -4.19999981      -3.68117646E-13
  -4.07999992      -3.39737190E-13
  -3.96000004      -2.25501380E-13
  -3.83999991      -3.31263778E-14
  -3.72000003       2.07164350E-13
  -3.59999990       4.45971791E-13
  -3.48000002       6.24448355E-13
  -3.35999990       6.88704139E-13
  -3.24000001       6.05359784E-13
  -3.11999989       3.73754332E-13
  -3.00000000       3.06726216E-14
  -2.88000011      -3.54817006E-13
  -2.75999999      -6.96109674E-13
  -2.64000010      -9.10160402E-13
  -2.51999998      -9.39464760E-13
  -2.40000010      -7.68701997E-13
  -2.27999997      -4.30909025E-13
  -2.16000009      -7.87471284E-16
  -2.03999996       4.23597328E-13
  -1.91999996       7.45978800E-13
  -1.79999995       8.96933732E-13
  -1.67999995       8.51626603E-13
  -1.55999994       6.35069308E-13
  -1.44000006       3.13386930E-13
  -1.32000005      -2.61627928E-14
  -1.20000005      -3.00187013E-13
  -1.08000004      -4.51402641E-13
 -0.959999979      -4.61365592E-13
 -0.839999974      -3.50221398E-13
 -0.720000029      -1.64552440E-13
 -0.600000024       4.14030789E-14
 -0.479999989       2.23580689E-13
 -0.360000014       3.57945905E-13
 -0.239999995       4.38731516E-13
 -0.119999997       4.66460312E-13
  -1.11022302E-15   4.31981870E-13
  0.119999997       3.05337569E-13
  0.239999995       3.73003867E-14
  0.360000014      -4.23126947E-13
  0.479999989      -1.09869525E-12
  0.600000024      -1.95123236E-12
  0.720000029      -2.85959017E-12
  0.839999974      -3.62014260E-12
  0.959999979      -3.97549832E-12
   1.08000004      -3.66774276E-12
   1.20000005      -2.50337988E-12
   1.32000005      -4.11795164E-13
   1.44000006       2.51998639E-12
   1.55999994       6.04592635E-12
   1.67999995       9.79083221E-12
   1.79999995       1.32974994E-11
   1.91999996       1.60703447E-11
   2.03999996       1.75962404E-11
   2.16000009       1.73336415E-11
   2.27999997       1.46773583E-11
   2.40000010       8.92211565E-12
   2.51999998      -7.43234088E-13
   2.64000010      -1.51829157E-11
   2.75999999      -3.51922623E-11
   2.88000011      -6.13225304E-11
   3.00000000      -9.36953293E-11
   3.11999989      -1.31866199E-10
   3.24000001      -1.74794068E-10
   3.35999990      -2.20949536E-10
   3.48000002      -2.68554512E-10
   3.59999990      -3.15901139E-10
   3.72000003      -3.61665115E-10
   3.83999991      -4.05122325E-10
   3.96000004      -4.46201159E-10
   4.07999992      -4.85353591E-10
   4.19999981      -5.23290022E-10
   4.32000017      -5.60670954E-10
   4.44000006      -5.97868866E-10
   4.55999994      -6.34891806E-10
   4.67999983      -6.71502964E-10
   4.80000019      -7.07496062E-10
   4.92000008      -7.43023754E-10
   5.03999996      -7.78845710E-10
   5.15999985      -8.16386792E-10
   5.28000021      -8.57557914E-10
   5.40000010      -9.04382902E-10
   5.51999998      -9.58549795E-10
   5.63999987      -1.02104514E-09
   5.76000023      -1.09200526E-09
   5.88000011      -1.17084886E-09
   6.00000000      -1.25665067E-09
   6.11999989      -1.34862521E-09
   6.23999977      -1.44654211E-09
   6.36000013      -1.55091662E-09
   6.48000002      -1.66289316E-09
   6.59999990      -1.78386150E-09
   6.71999979      -1.91494332E-09
   6.84000015      -2.05654516E-09
   6.96000004      -2.20816165E-09
   7.07999992      -2.36852205E-09
   7.19999981      -2.53605403E-09
   7.32000017      -2.70951928E-09
   7.44000006      -2.88860469E-09
   7.55999994      -3.07426529E-09
   7.67999983      -3.26869198E-09
   7.80000019      -3.47491036E-09
   7.92000008      -3.69613962E-09
   8.03999996      -3.93512334E-09
   8.15999985      -4.19364410E-09
   8.27999973      -4.47237802E-09
   8.39999962      -4.77110484E-09
   8.52000046      -5.08919129E-09
   8.64000034      -5.42616974E-09
   8.76000023      -5.78222625E-09
   8.88000011      -6.15846307E-09
   9.00000000      -6.55690080E-09
   9.11999989      -6.98028657E-09
   9.23999977      -7.43181250E-09
   9.35999966      -7.91487409E-09
   9.47999954      -8.43292725E-09
   9.60000038      -8.98942698E-09
   9.72000027      -9.58777235E-09
   9.84000015      -1.02311590E-08
   9.96000004      -1.09223022E-08
   10.0799999      -1.16630634E-08
   10.1999998      -1.24541071E-08
   10.3199997      -1.32947582E-08
   10.4399996      -1.41832155E-08
   10.5600004      -1.51171413E-08
   10.6800003      -1.60945319E-08
   10.8000002      -1.71146421E-08
   10.9200001      -1.81786461E-08
   11.0400000      -1.92898160E-08
   11.1599998      -2.04531236E-08
   11.2799997      -2.16743317E-08
   11.3999996      -2.29589237E-08
   11.5200005      -2.43112144E-08
   11.6400003      -2.57339821E-08
   11.7600002      -2.72287188E-08
   11.8800001      -2.87964834E-08
   12.0000000      -3.04388976E-08
   12.1199999      -3.21589937E-08
   12.2399998      -3.39614346E-08
   12.3599997      -3.58520396E-08
   12.4799995      -3.78367204E-08
   12.6000004      -3.99202484E-08
   12.7200003      -4.21054125E-08
   12.8400002      -4.43929942E-08
   12.9600000      -4.67826951E-08
   13.0799999      -4.92748278E-08
   13.1999998      -5.18721137E-08
   13.3199997      -5.45809833E-08
   13.4399996      -5.74116861E-08
   13.5600004      -6.03769834E-08
   13.6800003      -6.34897503E-08
   13.8000002      -6.67601157E-08
   13.9200001      -7.01931384E-08
   14.0400000      -7.37878949E-08
   14.1599998      -7.75383029E-08
   14.2799997      -8.14356866E-08
   14.3999996      -8.54721023E-08
   14.5200005      -8.96435353E-08
   14.6400003      -9.39518685E-08
   14.7600002      -9.84049038E-08
   14.8800001      -1.03014671E-07
   15.0000000      -1.07794406E-07
   15.1199999      -1.12755473E-07
   15.2399998      -1.17905351E-07
   15.3599997      -1.23247332E-07
   15.4799995      -1.28782148E-07
   15.6000004      -1.34510728E-07
   15.7200003      -1.40436995E-07
   15.8400002      -1.46569803E-07
   15.9600000      -1.52922581E-07
   16.0799999      -1.59511103E-07
   16.2000008      -1.66349778E-07
   16.3199997      -1.73447802E-07
   16.4400005      -1.80806310E-07
   16.5599995      -1.88417758E-07
   16.6800003      -1.96267933E-07
   16.7999992      -2.04339912E-07
   16.9200001      -2.12618872E-07
   17.0400009      -2.21096244E-07
   17.1599998      -2.29772027E-07
   17.2800007      -2.38654337E-07
   17.3999996      -2.47756702E-07
   17.5200005      -2.57093802E-07
   17.6399994      -2.66677205E-07
   17.7600002      -2.76512537E-07
   17.8799992      -2.86598379E-07
   18.0000000      -2.96927766E-07
   18.1200008      -3.07491092E-07
   18.2399998      -3.18279376E-07
   18.3600006      -3.29287218E-07
   18.4799995      -3.40513907E-07
   18.6000004      -3.51962854E-07
   18.7199993      -3.63639884E-07
   18.8400002      -3.75550684E-07
   18.9599991      -3.87698776E-07
   19.0799999      -4.00084559E-07
   19.2000008      -4.12705077E-07
   19.3199997      -4.25555243E-07
   19.4400005      -4.38628831E-07
   19.5599995      -4.51919391E-07
   19.6800003      -4.65419760E-07
   19.7999992      -4.79120956E-07
   19.9200001      -4.93010646E-07
   20.0400009      -5.07071718E-07
   20.1599998      -5.21282573E-07
   20.2800007      -5.35618142E-07
   20.3999996      -5.50052732E-07
   20.5200005      -5.64563493E-07
   20.6399994      -5.79132973E-07
   20.7600002      -5.93750201E-07
   20.8799992      -6.08410630E-07
   21.0000000      -6.23113692E-07
   21.1200008      -6.37859330E-07
   21.2399998      -6.52645440E-07
   21.3600006      -6.67466281E-07
   21.4799995      -6.82312532E-07
   21.6000004      -6.97172482E-07
   21.7199993      -7.12033966E-07
   21.8400002      -7.26885162E-07
   21.9599991      -7.41714587E-07
   22.0799999      -7.56509621E-07
   22.2000008      -7.71253781E-07
   22.3199997      -7.85925579E-07
   22.4400005      -8.00498356E-07
   22.5599995      -8.14941529E-07
   22.6800003      -8.29224973E-07
   22.7999992      -8.43322198E-07
   22.9200001      -8.57212740E-07
   23.0400009      -8.70882332E-07
   23.1599998      -8.84320400E-07
   23.2800007      -8.97516202E-07
   23.3999996      -9.10454276E-07
   23.5200005      -9.23112111E-07
   23.6399994      -9.35460548E-07
   23.7600002      -9.47467868E-07
   23.8799992      -9.59106842E-07
   24.0000000      -9.70360361E-07
   24.1200008      -9.81226208E-07
   24.2399998      -9.91717570E-07
   24.3600006      -1.00185821E-06
   24.4799995      -1.01167507E-06
   24.6000004      -1.02118850E-06
   24.7199993      -1.03040418E-06
   24.8400002      -1.03930984E-06
   24.9599991      -1.04787625E-06
   25.0799999      -1.05606478E-06
   25.2000008      -1.06383663E-06
   25.3199997      -1.07116477E-06
   25.4400005      -1.07804101E-06
   25.5599995      -1.08447944E-06
   25.6800003      -1.09051382E-06
   25.7999992      -1.09619043E-06
   25.9200001      -1.10155963E-06
   26.0400009      -1.10666690E-06
   26.1599998      -1.11154850E-06
   26.2800007      -1.11622910E-06
   26.3999996      -1.12072428E-06
   26.5200005      -1.12504574E-06
   26.6399994      -1.12920566E-06
   26.7600002      -1.13322290E-06
   26.8799992      -1.13712224E-06
   27.0000000      -1.14093780E-06
   27.1200008      -1.14470959E-06
   27.2399998      -1.14848456E-06
   27.3600006      -1.15231512E-06
   27.4799995      -1.15626096E-06
   27.6000004      -1.16039166E-06
   27.7199993      -1.16478748E-06
   27.8400002      -1.16953868E-06
   27.9599991      -1.17474269E-06
   28.0799999      -1.18049968E-06
   28.2000008      -1.18691185E-06
   28.3199997      -1.19408242E-06
   28.4400005      -1.20211382E-06
   28.5599995      -1.21111339E-06
   28.6800003      -1.22119582E-06
   28.7999992      -1.23248844E-06
   28.9200001      -1.24513224E-06
   29.0400009      -1.25928091E-06
   29.1599998      -1.27509429E-06
   29.2800007      -1.29273496E-06
   29.3999996      -1.31236027E-06
   29.5200005      -1.33412266E-06
   29.6399994      -1.35817004E-06
   29.7600002      -1.38465248E-06
   29.8799992      -1.41372914E-06
   30.0000000      -1.44557373E-06
   30.1200008      -1.48037986E-06
   30.2399998      -1.51836150E-06
   30.3600006      -1.55974976E-06
   30.4799995      -1.60478828E-06
   30.6000004      -1.65372455E-06
   30.7199993      -1.70680721E-06
   30.8400002      -1.76428307E-06
   30.9599991      -1.82639815E-06
   31.0799999      -1.89340290E-06
   31.2000008      -1.96555493E-06
   31.3199997      -2.04312164E-06
   31.4400005      -2.12638156E-06
   31.5599995      -2.21562027E-06
   31.6800003      -2.31113063E-06
   31.7999992      -2.41320890E-06
   31.9200001      -2.52215455E-06
   32.0400009      -2.63827360E-06
   32.1599998      -2.76188189E-06
   32.2799988      -2.89330910E-06
   32.4000015      -3.03290312E-06
   32.5200005      -3.18102684E-06
   32.6399994      -3.33805406E-06
   32.7599983      -3.50436221E-06
   32.8800011      -3.68032670E-06
   33.0000000      -3.86631518E-06
   33.1199989      -4.06268600E-06
   33.2400017      -4.26979068E-06
   33.3600006      -4.48797846E-06
   33.4799995      -4.71760404E-06
   33.5999985      -4.95903441E-06
   33.7200012      -5.21265338E-06
   33.8400002      -5.47886293E-06
   33.9599991      -5.75808326E-06
   34.0800018      -6.05074956E-06
   34.2000008      -6.35730612E-06
   34.3199997      -6.67820086E-06
   34.4399986      -7.01387853E-06
   34.5600014      -7.36477796E-06
   34.6800003      -7.73132524E-06
   34.7999992      -8.11393966E-06
   34.9199982      -8.51302775E-06
   35.0400009      -8.92900061E-06
   35.1599998      -9.36227480E-06
   35.2799988      -9.81328049E-06
   35.4000015      -1.02824706E-05
   35.5200005      -1.07703154E-05
   35.6399994      -1.12772987E-05
   35.7599983      -1.18039088E-05
   35.8800011      -1.23506279E-05
   36.0000000      -1.29179225E-05
   36.1199989      -1.35062410E-05
   36.2400017      -1.41160108E-05
   36.3600006      -1.47476549E-05
   36.4799995      -1.54015906E-05
   36.5999985      -1.60782420E-05
   36.7200012      -1.67780363E-05
   36.8400002      -1.75014138E-05
   36.9599991      -1.82488220E-05
   37.0800018      -1.90207047E-05
   37.2000008      -1.98175094E-05
   37.3199997      -2.06396689E-05
   37.4399986      -2.14875981E-05
   37.5600014      -2.23616862E-05
   37.6800003      -2.32623097E-05
   37.7999992      -2.41898088E-05
   37.9199982      -2.51445035E-05
   38.0400009      -2.61266923E-05
   38.1599998      -2.71366607E-05
   38.2799988      -2.81746798E-05
   38.4000015      -2.92410223E-05
   38.5200005      -3.03359629E-05
   38.6399994      -3.14597746E-05
   38.7599983      -3.26127338E-05
   38.8800011      -3.37951278E-05
   39.0000000      -3.50072187E-05
   39.1199989      -3.62492610E-05
   39.2400017      -3.75214804E-05
   39.3600006      -3.88240696E-05
   39.4799995      -4.01571742E-05
   39.5999985      -4.15209179E-05
   39.7200012      -4.29153879E-05
   39.8400002      -4.43406461E-05
   39.9599991      -4.57967290E-05
   40.0800018      -4.72836546E-05
   40.2000008      -4.88014266E-05
   40.3199997      -5.03500414E-05
   40.4399986      -5.19294699E-05
   40.5600014      -5.35396539E-05
   40.6800003      -5.51805279E-05
   40.7999992      -5.68519936E-05
   40.9199982      -5.85539201E-05
   41.0400009      -6.02861437E-05
   41.1599998      -6.20484643E-05
   41.2799988      -6.38406200E-05
   41.4000015      -6.56623233E-05
   41.5200005      -6.75132105E-05
   41.6399994      -6.93928741E-05
   41.7599983      -7.13008485E-05
   41.8800011      -7.32366461E-05
   42.0000000      -7.51997213E-05
   42.1199989      -7.71895066E-05
   42.2400017      -7.92054198E-05
   42.3600006      -8.12468352E-05
   42.4799995      -8.33131344E-05
   42.5999985      -8.54036698E-05
   42.7200012      -8.75177357E-05
   42.8400002      -8.96546189E-05
   42.9599991      -9.18135338E-05
   43.0800018      -9.39936654E-05
   43.2000008      -9.61940968E-05
   43.3199997      -9.84138605E-05
   43.4399986      -1.00651901E-04
   43.5600014      -1.02907099E-04
   43.6800003      -1.05178289E-04
   43.7999992      -1.07464242E-04
   43.9199982      -1.09763743E-04
   44.0400009      -1.12075511E-04
   44.1599998      -1.14398237E-04
   44.2799988      -1.16730545E-04
   44.4000015      -1.19071010E-04
   44.5200005      -1.21418147E-04
   44.6399994      -1.23770369E-04
   44.7599983      -1.26126062E-04
   44.8800011      -1.28483560E-04
   45.0000000      -1.30841130E-04
   45.1199989      -1.33197027E-04
   45.2400017      -1.35549475E-04
   45.3600006      -1.37896641E-04
   45.4799995      -1.40236632E-04
   45.5999985      -1.42567485E-04
   45.7200012      -1.44887235E-04
   45.8400002      -1.47193801E-04
   45.9599991      -1.49485044E-04
   46.0800018      -1.51758839E-04
   46.2000008      -1.54012974E-04
   46.3199997      -1.56245122E-04
   46.4399986      -1.58453011E-04
   46.5600014      -1.60634285E-04
   46.6800003      -1.62786528E-04
   46.7999992      -1.64907295E-04
   46.9199982      -1.66994083E-04
   47.0400009      -1.69044390E-04
   47.1599998      -1.71055610E-04
   47.2799988      -1.73025168E-04
   47.4000015      -1.74950430E-04
   47.5200005      -1.76828747E-04
   47.6399994      -1.78657443E-04
   47.7599983      -1.80433752E-04
   47.8800011      -1.82154981E-04
   48.0000000      -1.83818338E-04
   48.1199989      -1.85420999E-04
   48.2400017      -1.86960126E-04
   48.3600006      -1.88432808E-04
   48.4799995      -1.89836108E-04
   48.5999985      -1.91167084E-04
   48.7200012      -1.92422725E-04
   48.8400002      -1.93600077E-04
   48.9599991      -1.94696127E-04
   49.0800018      -1.95707908E-04
   49.2000008      -1.96632449E-04
   49.3199997      -1.97466841E-04
   49.4399986      -1.98208130E-04
   49.5600014      -1.98853377E-04
   49.6800003      -1.99399627E-04
   49.7999992      -1.99843955E-04
   49.9199982      -2.00183422E-04
   50.0400009      -2.00415045E-04
   50.1599998      -2.00535913E-04
   50.2799988      -2.00543116E-04
   50.4000015      -2.00433773E-04
   50.5200005      -2.00205002E-04
   50.6399994      -1.99854054E-04
   50.7599983      -1.99378133E-04
   50.8800011      -1.98774505E-04
   51.0000000      -1.98040536E-04
   51.1199989      -1.97173576E-04
   51.2400017      -1.96171037E-04
   51.3600006      -1.95030341E-04
   51.4799995      -1.93749031E-04
   51.5999985      -1.92324660E-04
   51.7200012      -1.90754814E-04
   51.8400002      -1.89037222E-04
   51.9599991      -1.87169600E-04
   52.0800018      -1.85149765E-04
   52.2000008      -1.82975695E-04
   52.3199997      -1.80645366E-04
   52.4399986      -1.78156915E-04
   52.5600014      -1.75508569E-04
   52.6800003      -1.72698637E-04
   52.7999992      -1.69725492E-04
   52.9199982      -1.66587561E-04
   53.0400009      -1.63283403E-04
   53.1599998      -1.59811592E-04
   53.2799988      -1.56170892E-04
   53.4000015      -1.52360168E-04
   53.5200005      -1.48378400E-04
   53.6399994      -1.44224789E-04
   53.7599983      -1.39898650E-04
   53.8800011      -1.35399416E-04
   54.0000000      -1.30726679E-04
   54.1199989      -1.25880106E-04
   54.2400017      -1.20859499E-04
   54.3600006      -1.15664792E-04
   54.4799995      -1.10296067E-04
   54.5999985      -1.04753577E-04
   54.7200012      -9.90377448E-05
   54.8400002      -9.31491086E-05
   54.9599991      -8.70883887E-05
   55.0800018      -8.08564218E-05
   55.2000008      -7.44541903E-05
   55.3199997      -6.78828583E-05
   55.4399986      -6.11437354E-05
   55.5600014      -5.42383641E-05
   55.6800003      -4.71684871E-05
   55.7999992      -3.99360433E-05
   55.9199982      -3.25431429E-05
   56.0400009      -2.49920686E-05
   56.1599998      -1.72852542E-05
   56.2799988      -9.42527913E-06
   56.4000015      -1.41488590E-06
   56.5200005       6.74301145E-06
   56.6399994       1.50452915E-05
   56.7599983       2.34886447E-05
   56.8800011       3.20695544E-05
   57.0000000       4.07843108E-05
   57.1199989       4.96290304E-05
   57.2400017       5.85996386E-05
   57.3600006       6.76918935E-05
   57.4799995       7.69013495E-05
   57.5999985       8.62233719E-05
   57.7200012       9.56531294E-05
   57.8400002       1.05185616E-04
   57.9599991       1.14815644E-04
   58.0800018       1.24537881E-04
   58.2000008       1.34346847E-04
   58.3199997       1.44236823E-04
   58.4399986       1.54202004E-04
   58.5600014       1.64236320E-04
   58.6800003       1.74333618E-04
   58.7999992       1.84487522E-04
   58.9199982       1.94691485E-04
   59.0400009       2.04938842E-04
   59.1599998       2.15222797E-04
   59.2799988       2.25536351E-04
   59.4000015       2.35872430E-04
   59.5200005       2.46223790E-04
   59.6399994       2.56583153E-04
   59.7599983       2.66942923E-04
   59.8800011       2.77295563E-04
   60.0000000       2.87633418E-04
   60.1199989       2.97948631E-04
   60.2400017       3.08233255E-04
   60.3600006       3.18479317E-04
   60.4799995       3.28678580E-04
   60.5999985       3.38822807E-04
   60.7200012       3.48903704E-04
   60.8400002       3.58912919E-04
   60.9599991       3.68842040E-04
   61.0800018       3.78682656E-04
   61.2000008       3.88426357E-04
   61.3199997       3.98064643E-04
   61.4399986       4.07588988E-04
   61.5600014       4.16990923E-04
   61.6800003       4.26261831E-04
   61.7999992       4.35393216E-04
   61.9199982       4.44376550E-04
   62.0400009       4.53203334E-04
   62.1599998       4.61865275E-04
   62.2799988       4.70353931E-04
   62.4000015       4.78661095E-04
   62.5200005       4.86778532E-04
   62.6399994       4.94698063E-04
   62.7599983       5.02411684E-04
   62.8800011       5.09911508E-04
   63.0000000       5.17189619E-04
   63.1199989       5.24238392E-04
   63.2400017       5.31050377E-04
   63.3600006       5.37618180E-04
   63.4799995       5.43934526E-04
   63.5999985       5.49992314E-04
   63.7200012       5.55784616E-04
   63.8400002       5.61304914E-04
   63.9599991       5.66546747E-04
   64.0800018       5.71503886E-04
   64.1999969       5.76170452E-04
   64.3199997       5.80540684E-04
   64.4400024       5.84609108E-04
   64.5599976       5.88370429E-04
   64.6800003       5.91819757E-04
   64.8000031       5.94952260E-04
   64.9199982       5.97763632E-04
   65.0400009       6.00249798E-04
   65.1600037       6.02407148E-04
   65.2799988       6.04232191E-04
   65.4000015       6.05721900E-04
   65.5199966       6.06873422E-04
   65.6399994       6.07684487E-04
   65.7600021       6.08152943E-04
   65.8799973       6.08276983E-04
   66.0000000       6.08055270E-04
   66.1200027       6.07486872E-04
   66.2399979       6.06571091E-04
   66.3600006       6.05307636E-04
   66.4800034       6.03696797E-04
   66.5999985       6.01739099E-04
   66.7200012       5.99435531E-04
   66.8399963       5.96787606E-04
   66.9599991       5.93797071E-04
   67.0800018       5.90465905E-04
   67.1999969       5.86796843E-04
   67.3199997       5.82792680E-04
   67.4400024       5.78456616E-04
   67.5599976       5.73792495E-04
   67.6800003       5.68804506E-04
   67.8000031       5.63497248E-04
   67.9199982       5.57875668E-04
   68.0400009       5.51945122E-04
   68.1600037       5.45711431E-04
   68.2799988       5.39180648E-04
   68.4000015       5.32359001E-04
   68.5199966       5.25253417E-04
   68.6399994       5.17870940E-04
   68.7600021       5.10219252E-04
   68.8799973       5.02306269E-04
   69.0000000       4.94140026E-04
   69.1200027       4.85729193E-04
   69.2399979       4.77082474E-04
   69.3600006       4.68208862E-04
   69.4800034       4.59117728E-04
   69.5999985       4.49818792E-04
   69.7200012       4.40322037E-04
   69.8399963       4.30637680E-04
   69.9599991       4.20776196E-04
   70.0800018       4.10748296E-04
   70.1999969       4.00564808E-04
   70.3199997       3.90236761E-04
   70.4400024       3.79775214E-04
   70.5599976       3.69191519E-04
   70.6800003       3.58497200E-04
   70.8000031       3.47703870E-04
   70.9199982       3.36823403E-04
   71.0400009       3.25867761E-04
   71.1600037       3.14848876E-04
   71.2799988       3.03778797E-04
   71.4000015       2.92669574E-04
   71.5199966       2.81533110E-04
   71.6399994       2.70381366E-04
   71.7600021       2.59226304E-04
   71.8799973       2.48079858E-04
   72.0000000       2.36953900E-04
   72.1200027       2.25860233E-04
   72.2399979       2.14810556E-04
   72.3600006       2.03816511E-04
   72.4800034       1.92889594E-04
   72.5999985       1.82041142E-04
   72.7200012       1.71282387E-04