  -30.0000000       0.00000000    
  -29.8799992       0.00000000    
  -29.7600002       0.00000000    
  -29.6399994       0.00000000    
  -29.5200005       0.00000000    
  -29.3999996       0.00000000    
  -29.2800007       0.00000000    
  -29.1599998       0.00000000    
  -29.0400009       0.00000000    
  -28.9200001       0.00000000    
  -28.7999992      -6.58610278E-44
  -28.6800003       8.44173023E-40
  -28.5599995       1.05887031E-38
  -28.4400005       5.23397252E-38
  -28.3199997       4.41899443E-38
  -28.2000008      -1.05062247E-36
  -28.0799999      -8.16626917E-36
  -27.9599991      -3.58962139E-35
  -27.8400002      -1.11332356E-34
  -27.7199993      -2.52567910E-34
  -27.6000004      -3.88310692E-34
  -27.4799995      -2.16676004E-34
  -27.3600006       8.64522739E-34
  -27.2399998       3.42536335E-33
  -27.1200008       6.97936546E-33
  -27.0000000       8.83752449E-33
  -26.8799992       5.37518412E-33
  -26.7600002      -8.41816332E-35
  -26.6399994       1.83818487E-32
  -26.5200005       1.19876032E-31
  -26.3999996       3.63675806E-31
  -26.2800007       6.74894283E-31
  -26.1599998       5.86206008E-31
  -26.0400009      -1.01279916E-30
  -25.9200001      -5.69503353E-30
  -25.7999992      -1.41726521E-29
  -25.6800003      -2.32460120E-29
  -25.5599995      -2.16064212E-29
  -25.4400005       1.22908538E-29
  -25.3199997       1.03603536E-28
  -25.2000008       2.57491489E-28
  -25.0799999       4.15696812E-28
  -24.9599991       4.08239611E-28
  -24.8400002      -5.46474136E-29
  -24.7199993      -1.27579974E-27
  -24.6000004      -3.27871238E-27
  -24.4799995      -5.34048086E-27
  -24.3600006      -5.55160862E-27
  -24.2399998      -8.67664181E-28
  -24.1200008       1.16998996E-26
  -24.0000000       3.22841911E-26
  -23.8799992       5.41224402E-26
  -23.7600002       6.02116698E-26
  -23.6399994       2.44092423E-26
  -23.5200005      -7.84858176E-26
  -23.3999996      -2.51202993E-25
  -23.2800007      -4.44954528E-25
  -23.1599998      -5.37091806E-25
  -23.0400009      -3.39890680E-25
  -22.9200001       3.32832446E-25
  -22.7999992       1.52974260E-24
  -22.6800003       2.98339128E-24
  -22.5599995       3.97149222E-24
  -22.4400005       3.35091152E-24
  -22.3199997      -9.64893306E-26
  -22.2000008      -6.94661683E-24
  -22.0799999      -1.61706546E-23
  -21.9599991      -2.43144601E-23
  -21.8400002      -2.54429872E-23
  -21.7199993      -1.25226754E-23
  -21.6000004       1.93916320E-23
  -21.4799995       6.85510850E-23
  -21.3600006       1.21976122E-22
  -21.2399998       1.53572033E-22
  -21.1200008       1.27969975E-22
  -21.0000000       1.23594104E-23
  -20.8799992      -2.04016369E-22
  -20.7600002      -4.87304751E-22
  -20.6399994      -7.42947282E-22
  -20.5200005      -8.19028158E-22
  -20.3999996      -5.41299490E-22
  -20.2800007       2.15380610E-22
  -20.1599998       1.42949805E-21
  -20.0400009       2.83961189E-21
  -19.9200001       3.90422585E-21
  -19.7999992       3.87026378E-21
  -19.6800003       1.98942551E-21
  -19.5599995      -2.12392395E-21
  -19.4400005      -8.07112678E-21
  -19.3199997      -1.43408626E-20
  -19.2000008      -1.82855367E-20
  -19.0799999      -1.66038026E-20
  -18.9599991      -6.42270082E-21
  -18.8400002       1.31414572E-20
  -18.7199993       3.93512597E-20
  -18.6000004       6.48295309E-20
  -18.4799995       7.79767395E-20
  -18.3600006       6.55080516E-20
  -18.2399998       1.72706846E-20
  -18.1200008      -6.74090290E-20
  -18.0000000      -1.73736634E-19
  -17.8799992      -2.68703496E-19
  -17.7600002      -3.04780745E-19
  -17.6399994      -2.32292685E-19
  -17.5200005      -2.01048284E-20
  -17.3999996       3.19813797E-19
  -17.2800007       7.12912125E-19
  -17.1599998       1.01965158E-18
  -17.0400009       1.06125318E-18
  -16.9200001       6.77825243E-19
  -16.7999992      -1.89903505E-19
  -16.6800003      -1.42030354E-18
  -16.5599995      -2.67036566E-18
  -16.4400005      -3.41522340E-18
  -16.3199997      -3.09099548E-18
  -16.2000008      -1.32697503E-18
  -16.0799999       1.79658273E-18
  -15.9600000       5.57256193E-18
  -15.8400002       8.69334150E-18
  -15.7200003       9.56041290E-18
  -15.6000004       6.86157940E-18
  -15.4799995       2.67268803E-19
  -15.3599997      -9.02209699E-18
  -15.2399998      -1.81885254E-17
  -15.1199999      -2.33920755E-17
  -15.0000000      -2.10453310E-17
  -14.8800001      -9.44807681E-18
  -14.7600002       9.81972989E-18
  -14.6400003       3.14543832E-17
  -14.5200005       4.74563179E-17
  -14.3999996       4.96602017E-17
  -14.2799997       3.31286265E-17
  -14.1599998      -8.20973708E-19
  -14.0400000      -4.33995330E-17
  -13.9200001      -7.99990723E-17
  -13.8000002      -9.47914439E-17
  -13.6800003      -7.70475793E-17
  -13.5600004      -2.68427438E-17
  -13.4399996       4.25326576E-17
  -13.3199997       1.07347232E-16
  -13.1999998       1.41408259E-16
  -13.0799999       1.26896123E-16
  -12.9600000       6.37998120E-17
  -12.8400002      -2.67210059E-17
  -12.7200003      -1.08067309E-16
  -12.6000004      -1.42539247E-16
  -12.4799995      -1.09583524E-16
  -12.3599997      -2.01236996E-17
  -12.2399998       8.11260364E-17
  -12.1199999       1.29961602E-16
  -12.0000000       7.15069780E-17
  -11.8800001      -1.06213127E-16
  -11.7600002      -3.49039831E-16
  -11.6400003      -5.38721584E-16
  -11.5200005      -5.27972736E-16
  -11.3999996      -2.03281449E-16
  -11.2799997       4.44421035E-16
  -11.1599998       1.27123933E-15
  -11.0400000       1.98370225E-15
  -10.9200001       2.21030474E-15
  -10.8000002       1.63274971E-15
  -10.6800003       1.40142554E-16
  -10.5600004      -2.05138018E-15
  -10.4399996      -4.37341322E-15
  -10.3199997      -6.01230423E-15
  -10.1999998      -6.14300989E-15
  -10.0799999      -4.23237757E-15
  -9.96000004      -3.13031772E-16
  -9.84000015       4.88258293E-15
  -9.72000027       1.00090724E-14
  -9.60000038       1.34300276E-14
  -9.47999954       1.37039114E-14
  -9.35999966       1.00897616E-14
  -9.23999977       2.89837628E-15
  -9.11999989      -6.45382312E-15
  -9.00000000      -1.57417295E-14
  -8.88000011      -2.25125552E-14
  -8.76000023      -2.47769876E-14
  -8.64000034      -2.15856165E-14
  -8.52000046      -1.32967105E-14
  -8.39999962      -1.44854132E-15
  -8.27999973       1.17048823E-14
  -8.15999985       2.38093321E-14
  -8.03999996       3.29386922E-14
  -7.92000008       3.78460453E-14
  -7.80000019       3.78828235E-14
  -7.67999983       3.26992563E-14
  -7.55999994       2.19648891E-14
  -7.44000006       5.36557467E-15
  -7.32000017      -1.69817265E-14
  -7.19999981      -4.37709290E-14
  -7.07999992      -7.17149864E-14
  -6.96000004      -9.51778871E-14
  -6.84000015      -1.06663410E-13
  -6.71999979      -9.83665460E-14
  -6.59999990      -6.46117071E-14
  -6.48000002      -4.58474201E-15
  -6.36000013       7.55328756E-14
  -6.23999977       1.61963243E-13
  -6.11999989       2.34919614E-13
  -6.00000000       2.72469439E-13
  -5.88000011       2.56043992E-13
  -5.76000023       1.76312185E-13
  -5.63999987       3.77704697E-14
  -5.51999998      -1.39517887E-13
  -5.40000010      -3.22031600E-13
  -5.28000021      -4.68794274E-13
  -5.15999985      -5.40228181E-13
  -5.03999996      -5.07897056E-13
  -4.92000008      -3.62720460E-13
  -4.80000019      -1.19426306E-13
  -4.67999983       1.84174887E-13
  -4.55999994       4.93262928E-13
  -4.44000006       7.46260421E-13
  -4.32000017       8.87054536E-13
  -4.19999981       8.76525306E-13
  -4.07999992       7.00962237E-13
  -3.96000004       3.75782088E-13
  -3.83999991      -5.59170122E-14
  -3.72000003      -5.29373420E-13
  -3.59999990      -9.67462221E-13
  -3.48000002      -1.29176531E-12
  -3.35999990      -1.43405849E-12
  -3.24000001      -1.34716251E-12
  -3.11999989      -1.01428761E-12
  -3.00000000      -4.55910700E-13
  -2.88000011       2.67092826E-13
  -2.75999999       1.05561989E-12
  -2.64000010       1.78127370E-12
  -2.51999998       2.30275673E-12
  -2.40000010       2.48892074E-12
  -2.27999997       2.24567782E-12
  -2.16000009       1.54202107E-12
  -2.03999996       4.29139580E-13
  -1.91999996      -9.53330947E-13
  -1.79999995      -2.38822026E-12
  -1.67999995      -3.60999100E-12
  -1.55999994      -4.34914951E-12
  -1.44000006      -4.38479895E-12
  -1.32000005      -3.59525972E-12
  -1.20000005      -1.99579372E-12
  -1.08000004       2.45898679E-13
 -0.959999979       2.82169383E-12
 -0.839999974       5.32229599E-12
 -0.720000029       7.29773186E-12
 -0.600000024       8.32868063E-12
 -0.479999989       8.09634651E-12
 -0.360000014       6.43959885E-12
 -0.239999995       3.39154356E-12
 -0.119999997      -8.07793231E-13
  -1.11022302E-15  -5.72203613E-12
  0.119999997      -1.07495471E-11
  0.239999995      -1.51724692E-11
  0.360000014      -1.82227740E-11
  0.479999989      -1.91656795E-11
  0.600000024      -1.73998871E-11
  0.720000029      -1.25698358E-11
  0.839999974      -4.67775992E-12
  0.959999979       5.82454831E-12
   1.08000004       1.79899047E-11
   1.20000005       3.04005189E-11
   1.32000005       4.12792474E-11
   1.44000006       4.86867248E-11
   1.55999994       5.07836342E-11
   1.67999995       4.61190808E-11
   1.79999995       3.38957959E-11
   1.91999996       1.41643867E-11
   2.03999996      -1.20869261E-11
   2.16000009      -4.29578421E-11
   2.27999997      -7.57627919E-11
   2.40000010      -1.07225770E-10
   2.51999998      -1.33702355E-10
   2.64000010      -1.51393842E-10
   2.75999999      -1.56533772E-10
   2.88000011      -1.45546727E-10
   3.00000000      -1.15192501E-10
   3.11999989      -6.27125712E-11
   3.24000001       1.40144649E-11
   3.35999990       1.16320092E-10
   3.48000002       2.44626763E-10
   3.59999990       3.98403588E-10
   3.72000003       5.76233339E-10
   3.83999991       7.76006870E-10
   3.96000004       9.95225569E-10
   4.07999992       1.23136457E-09
   4.19999981       1.48222223E-09
   4.32000017       1.74618697E-09
   4.44000006       2.02236738E-09
   4.55999994       2.31057884E-09
   4.67999983       2.61121103E-09
   4.80000019       2.92504465E-09
   4.92000008       3.25308380E-09
   5.03999996       3.59646646E-09
   5.15999985       3.95647248E-09
   5.28000021       4.33461311E-09
   5.40000010       4.73275152E-09
   5.51999998       5.15319298E-09
   5.63999987       5.59869839E-09
   5.76000023       6.07240835E-09
   5.88000011       6.57769883E-09
   6.00000000       7.11802128E-09
   6.11999989       7.69679076E-09
   6.23999977       8.31736546E-09
   6.36000013       8.98312358E-09
   6.48000002       9.69761782E-09
   6.59999990       1.04647508E-08
   6.71999979       1.12889058E-08
   6.84000015       1.21750032E-08
   6.96000004       1.31284716E-08
   7.07999992       1.41551526E-08
   7.19999981       1.52611985E-08
   7.32000017       1.64529954E-08
   7.44000006       1.77371255E-08
   7.55999994       1.91203693E-08
   7.67999983       2.06096775E-08
   7.80000019       2.22120775E-08
   7.92000008       2.39344580E-08
   8.03999996       2.57832795E-08
   8.15999985       2.77642727E-08
   8.27999973       2.98822229E-08
   8.39999962       3.21410347E-08
   8.52000046       3.45440796E-08
   8.64000034       3.70949280E-08
   8.76000023       3.97982873E-08
   8.88000011       4.26610356E-08
   9.00000000       4.56930955E-08
   9.11999989       4.89079426E-08
   9.23999977       5.23226333E-08
   9.35999966       5.59573508E-08
   9.47999954       5.98346332E-08
   9.60000038       6.39783906E-08
   9.72000027       6.84130939E-08
   9.84000015       7.31631076E-08
   9.96000004       7.82524481E-08
   10.0799999       8.37046983E-08
   10.1999998       8.95430219E-08
   10.3199997       9.57901634E-08
   10.4399996       1.02468221E-07
   10.5600004       1.09598361E-07
   10.6800003       1.17200514E-07
   10.8000002       1.25293340E-07
   10.9200001       1.33894673E-07
   11.0400000       1.43022589E-07
   11.1599998       1.52696870E-07
   11.2799997       1.62940793E-07
   11.3999996       1.73782624E-07
   11.5200005       1.85256653E-07
   11.6400003       1.97403253E-07
   11.7600002       2.10267828E-07
   11.8800001       2.23899150E-07
   12.0000000       2.38347198E-07
   12.1199999       2.53661170E-07
   12.2399998       2.69887892E-07
   12.3599997       2.87071515E-07
   12.4799995       3.05253678E-07
   12.6000004       3.24474712E-07
   12.7200003       3.44775344E-07
   12.8400002       3.66197952E-07
   12.9600000       3.88788294E-07
   13.0799999       4.12596222E-07
   13.1999998       4.37676277E-07
   13.3199997       4.64088004E-07
   13.4399996       4.91896003E-07
   13.5600004       5.21170080E-07
   13.6800003       5.51984726E-07
   13.8000002       5.84418615E-07
   13.9200001       6.18553713E-07
   14.0400000       6.54473752E-07
   14.1599998       6.92262631E-07
   14.2799997       7.32003116E-07
   14.3999996       7.73776037E-07
   14.5200005       8.17660862E-07
   14.6400003       8.63736602E-07
   14.7600002       9.12083806E-07
   14.8800001       9.62787567E-07
   15.0000000       1.01593901E-06
   15.1199999       1.07163748E-06
   15.2399998       1.12999021E-06
   15.3599997       1.19111110E-06
   15.4799995       1.25511951E-06
   15.6000004       1.32213688E-06
   15.7200003       1.39228473E-06
   15.8400002       1.46568368E-06
   15.9600000       1.54245242E-06
   16.0799999       1.62270760E-06
   16.2000008       1.70656597E-06
   16.3199997       1.79414462E-06
   16.4400005       1.88556260E-06
   16.5599995       1.98094222E-06
   16.6800003       2.08041001E-06
   16.7999992       2.18409650E-06
   16.9200001       2.29213720E-06
   17.0400009       2.40467261E-06
   17.1599998       2.52184941E-06
   17.2800007       2.64381924E-06
   17.3999996       2.77073832E-06
   17.5200005       2.90276625E-06
   17.6399994       3.04006426E-06
   17.7600002       3.18279331E-06
   17.8799992       3.33111234E-06
   18.0000000       3.48517688E-06
   18.1200008       3.64513971E-06
   18.2399998       3.81115137E-06
   18.3600006       3.98336260E-06
   18.4799995       4.16192461E-06
   18.6000004       4.34699177E-06
   18.7199993       4.53871962E-06
   18.8400002       4.73726504E-06
   18.9599991       4.94278311E-06
   19.0799999       5.15542706E-06
   19.2000008       5.37534152E-06
   19.3199997       5.60267063E-06
   19.4400005       5.83755354E-06
   19.5599995       6.08013215E-06
   19.6800003       6.33055470E-06
   19.7999992       6.58897625E-06
   19.9200001       6.85555960E-06
   20.0400009       7.13047393E-06
   20.1599998       7.41388703E-06
   20.2800007       7.70596307E-06
   20.3999996       8.00685120E-06
   20.5200005       8.31668603E-06
   20.6399994       8.63558307E-06
   20.7600002       8.96364509E-06
   20.8799992       9.30095848E-06
   21.0000000       9.64760602E-06
   21.1200008       1.00036686E-05
   21.2399998       1.03692309E-05
   21.3600006       1.07443757E-05
   21.4799995       1.11291893E-05
   21.6000004       1.15237563E-05
   21.7199993       1.19281522E-05
   21.8400002       1.23424479E-05
   21.9599991       1.27667035E-05
   22.0799999       1.32009664E-05
   22.2000008       1.36452727E-05
   22.3199997       1.40996453E-05
   22.4400005       1.45640943E-05
   22.5599995       1.50386186E-05
   22.6800003       1.55231974E-05
   22.7999992       1.60178042E-05
   22.9200001       1.65223955E-05
   23.0400009       1.70369203E-05
   23.1599998       1.75613150E-05
   23.2800007       1.80955121E-05
   23.3999996       1.86394282E-05
   23.5200005       1.91929721E-05
   23.6399994       1.97560385E-05
   23.7600002       2.03285017E-05
   23.8799992       2.09102200E-05
   24.0000000       2.15010314E-05
   24.1200008       2.21007558E-05
   24.2399998       2.27091950E-05
   24.3600006       2.33261380E-05
   24.4799995       2.39513647E-05
   24.6000004       2.45846386E-05
   24.7199993       2.52257087E-05
   24.8400002       2.58743185E-05
   24.9599991       2.65301805E-05
   25.0799999       2.71929966E-05
   25.2000008       2.78624393E-05
   25.3199997       2.85381720E-05
   25.4400005       2.92198401E-05
   25.5599995       2.99070725E-05
   25.6800003       3.05994909E-05
   25.7999992       3.12967059E-05
   25.9200001       3.19983155E-05
   26.0400009       3.27038906E-05
   26.1599998       3.34130054E-05
   26.2800007       3.41251944E-05
   26.3999996       3.48399735E-05
   26.5200005       3.55568445E-05
   26.6399994       3.62752871E-05
   26.7600002       3.69947702E-05
   26.8799992       3.77147480E-05
   27.0000000       3.84346749E-05
   27.1200008       3.91539834E-05
   27.2399998       3.98720949E-05
   27.3600006       4.05884166E-05
   27.4799995       4.13023372E-05
   27.6000004       4.20132019E-05
   27.7199993       4.27203522E-05
   27.8400002       4.34231115E-05
   27.9599991       4.41207958E-05
   28.0799999       4.48127066E-05
   28.2000008       4.54981528E-05
   28.3199997       4.61764539E-05
   28.4400005       4.68469188E-05
   28.5599995       4.75088782E-05
   28.6800003       4.81616516E-05
   28.7999992       4.88045407E-05
   28.9200001       4.94368469E-05
   29.0400009       5.00578462E-05
   29.1599998       5.06668075E-05
   29.2800007       5.12629922E-05
   29.3999996       5.18456472E-05
   29.5200005       5.24140269E-05
   29.6399994       5.29673744E-05
   29.7600002       5.35049367E-05
   29.8799992       5.40259425E-05
   30.0000000       5.45296534E-05
   30.1200008       5.50153090E-05
   30.2399998       5.54821563E-05
   30.3600006       5.59294640E-05
   30.4799995       5.63564936E-05
   30.6000004       5.67625175E-05
   30.7199993       5.71468299E-05
   30.8400002       5.75087324E-05
   30.9599991       5.78475338E-05
   31.0799999       5.81625536E-05
   31.2000008       5.84531190E-05
   31.3199997       5.87185714E-05
   31.4400005       5.89582414E-05
   31.5599995       5.91714779E-05
   31.6800003       5.93576478E-05
   31.7999992       5.95161255E-05
   31.9200001       5.96462960E-05
   32.0400009       5.97475591E-05
   32.1599998       5.98193292E-05
   32.2799988       5.98610422E-05
   32.4000015       5.98721381E-05
   32.5200005       5.98520892E-05
   32.6399994       5.98003717E-05
   32.7599983       5.97165163E-05
   32.8800011       5.96000500E-05
   33.0000000       5.94505545E-05
   33.1199989       5.92676188E-05
   33.2400017       5.90508826E-05
   33.3600006       5.87999893E-05
   33.4799995       5.85146117E-05
   33.5999985       5.81944259E-05
   33.7200012       5.78391227E-05
   33.8400002       5.74484002E-05
   33.9599991       5.70219854E-05
   34.0800018       5.65596019E-05
   34.2000008       5.60610060E-05
   34.3199997       5.55259685E-05
   34.4399986       5.49543074E-05
   34.5600014       5.43458591E-05
   34.6800003       5.37005071E-05
   34.7999992       5.30181678E-05
   34.9199982       5.22987939E-05
   35.0400009       5.15423781E-05
   35.1599998       5.07489349E-05
   35.2799988       4.99185189E-05
   35.4000015       4.90512066E-05
   35.5200005       4.81470815E-05
   35.6399994       4.72062493E-05
   35.7599983       4.62288299E-05
   35.8800011       4.52149543E-05
   36.0000000       4.41647826E-05
   36.1199989       4.30784894E-05
   36.2400017       4.19562857E-05
   36.3600006       4.07984226E-05
   36.4799995       3.96051728E-05
   36.5999985       3.83768675E-05
   36.7200012       3.71138667E-05
   36.8400002       3.58165817E-05
   36.9599991       3.44854452E-05
   37.0800018       3.31209121E-05
   37.2000008       3.17234590E-05
   37.3199997       3.02935623E-05
   37.4399986       2.88317096E-05
   37.5600014       2.73383885E-05
   37.6800003       2.58140881E-05
   37.7999992       2.42593087E-05
   37.9199982       2.26745742E-05
   38.0400009       2.10604339E-05
   38.1599998       1.94174681E-05
   38.2799988       1.77462825E-05
   38.4000015       1.60475174E-05
   38.5200005       1.43218340E-05
   38.6399994       1.25699034E-05
   38.7599983       1.07924043E-05
   38.8800011       8.99001316E-06
   39.0000000       7.16339491E-06
   39.1199989       5.31321621E-06
   39.2400017       3.44013961E-06
   39.3600006       1.54483871E-06
   39.4799995      -3.71991405E-07
   39.5999985      -2.30963087E-06
   39.7200012      -4.26732595E-06
   39.8400002      -6.24429367E-06
   39.9599991      -8.23973187E-06
   40.0800018      -1.02528256E-05
   40.2000008      -1.22827669E-05
   40.3199997      -1.43287652E-05
   40.4399986      -1.63900586E-05
   40.5600014      -1.84659148E-05
   40.6800003      -2.05556262E-05
   40.7999992      -2.26584962E-05
   40.9199982      -2.47738390E-05
   41.0400009      -2.69009579E-05
   41.1599998      -2.90391454E-05
   41.2799988      -3.11876902E-05
   41.4000015      -3.33458738E-05
   41.5200005      -3.55129814E-05
   41.6399994      -3.76883218E-05
   41.7599983      -3.98712145E-05
   41.8800011      -4.20610195E-05
   42.0000000      -4.42571036E-05
   42.1199989      -4.64588520E-05
   42.2400017      -4.86656863E-05
   42.3600006      -5.08770354E-05
   42.4799995      -5.30923498E-05
   42.5999985      -5.53111167E-05
   42.7200012      -5.75328522E-05
   42.8400002      -5.97571125E-05
   42.9599991      -6.19834827E-05
   43.0800018      -6.42115992E-05
   43.2000008      -6.64411273E-05
   43.3199997      -6.86717394E-05
   43.4399986      -7.09031738E-05
   43.5600014      -7.31351465E-05
   43.6800003      -7.53674540E-05
   43.7999992      -7.75998997E-05
   43.9199982      -7.98323163E-05
   44.0400009      -8.20645801E-05
   44.1599998      -8.42966110E-05
   44.2799988      -8.65283873E-05
   44.4000015      -8.87599163E-05
   44.5200005      -9.09912487E-05
   44.6399994      -9.32225230E-05
   44.7599983      -9.54538991E-05
   44.8800011      -9.76855954E-05
   45.0000000      -9.99179101E-05
   45.1199989      -1.02151156E-04
   45.2400017      -1.04385683E-04
   45.3600006      -1.06621919E-04
   45.4799995      -1.08860295E-04
   45.5999985      -1.11101312E-04
   45.7200012      -1.13345457E-04
   45.8400002      -1.15593321E-04
   45.9599991      -1.17845513E-04
   46.0800018      -1.20102712E-04
   46.2000008      -1.22365673E-04
   46.3199997      -1.24635204E-04
   46.4399986      -1.26912215E-04
   46.5600014      -1.29197622E-04
   46.6800003      -1.31492401E-04
   46.7999992      -1.33797614E-04
   46.9199982      -1.36114322E-04
   47.0400009      -1.38443560E-04
   47.1599998      -1.40786462E-04
   47.2799988      -1.43144163E-04
   47.4000015      -1.45517828E-04
   47.5200005      -1.47908693E-04
   47.6399994      -1.50318039E-04
   47.7599983      -1.52747161E-04
   47.8800011      -1.55197456E-04
   48.0000000      -1.57670307E-04
   48.1199989      -1.60167125E-04
   48.2400017      -1.62689379E-04
   48.3600006      -1.65238569E-04
   48.4799995      -1.67816237E-04
   48.5999985      -1.70423868E-04
   48.7200012      -1.73063061E-04
   48.8400002      -1.75735418E-04
   48.9599991      -1.78442482E-04
   49.0800018      -1.81185897E-04
   49.2000008      -1.83967291E-04
   49.3199997      -1.86788238E-04
   49.4399986      -1.89650396E-04
   49.5600014      -1.92555410E-04
   49.6800003      -1.95504894E-04
   49.7999992      -1.98500493E-04
   49.9199982      -2.01543764E-04
   50.0400009      -2.04636322E-04
   50.1599998      -2.07779725E-04
   50.2799988      -2.10975530E-04
   50.4000015      -2.14225249E-04
   50.5200005      -2.17530353E-04
   50.6399994      -2.20892325E-04
   50.7599983      -2.24312549E-04
   50.8800011      -2.27792450E-04
   51.0000000      -2.31333353E-04
   51.1199989      -2.34936568E-04
   51.2400017      -2.38603330E-04
   51.3600006      -2.42334849E-04
   51.4799995      -2.46132200E-04
   51.5999985      -2.49996519E-04
   51.7200012      -2.53928738E-04
   51.8400002      -2.57929874E-04
   51.9599991      -2.62000744E-04
   52.0800018      -2.66142190E-04
   52.2000008      -2.70354911E-04
   52.3199997      -2.74639577E-04
   52.4399986      -2.78996711E-04
   52.5600014      -2.83426751E-04
   52.6800003      -2.87929957E-04
   52.7999992      -2.92506506E-04
   52.9199982      -2.97156424E-04
   53.0400009      -3.01879685E-04
   53.1599998      -3.06676113E-04
   53.2799988      -3.11545446E-04
   53.4000015      -3.16487334E-04
   53.5200005      -3.21501371E-04
   53.6399994      -3.26587004E-04
   53.7599983      -3.31743533E-04
   53.8800011      -3.36970203E-04
   54.0000000      -3.42266052E-04
   54.1199989      -3.47629946E-04
   54.2400017      -3.53060663E-04
   54.3600006      -3.58556776E-04
   54.4799995      -3.64116800E-04
   54.5999985      -3.69739020E-04
   54.7200012      -3.75421572E-04
   54.8400002      -3.81162507E-04
   54.9599991      -3.86959582E-04
   55.0800018      -3.92810558E-04
   55.2000008      -3.98712960E-04
   55.3199997      -4.04664141E-04
   55.4399986      -4.10661451E-04
   55.5600014      -4.16701921E-04
   55.6800003      -4.22782556E-04
   55.7999992      -4.28900152E-04
   55.9199982      -4.35051334E-04
   56.0400009      -4.41232609E-04
   56.1599998      -4.47440223E-04
   56.2799988      -4.53670451E-04
   56.4000015      -4.59919305E-04
   56.5200005      -4.66182624E-04
   56.6399994      -4.72456217E-04
   56.7599983      -4.78735717E-04
   56.8800011      -4.85016557E-04
   57.0000000      -4.91294137E-04
   57.1199989      -4.97563742E-04
   57.2400017      -5.03820367E-04
   57.3600006      -5.10059122E-04
   57.4799995      -5.16274769E-04
   57.5999985      -5.22461953E-04
   57.7200012      -5.28615201E-04
   57.8400002      -5.34728926E-04
   57.9599991      -5.40797308E-04
   58.0800018      -5.46814641E-04
   58.2000008      -5.52775105E-04
   58.3199997      -5.58672647E-04
   58.4399986      -5.64501155E-04
   58.5600014      -5.70254517E-04
   58.6800003      -5.75926562E-04
   58.7999992      -5.81510889E-04
   58.9199982      -5.87001152E-04
   59.0400009      -5.92390832E-04
   59.1599998      -5.97673585E-04
   59.2799988      -6.02842891E-04
   59.4000015      -6.07892347E-04
   59.5200005      -6.12815376E-04
   59.6399994      -6.17605459E-04
   59.7599983      -6.22256019E-04
   59.8800011      -6.26760302E-04
   60.0000000      -6.31111674E-04
   60.1199989      -6.35303382E-04
   60.2400017      -6.39328850E-04
   60.3600006      -6.43181440E-04
   60.4799995      -6.46854576E-04
   60.5999985      -6.50341681E-04
   60.7200012      -6.53636409E-04
   60.8400002      -6.56732300E-04
   60.9599991      -6.59623009E-04
   61.0800018      -6.62302366E-04
   61.2000008      -6.64764142E-04
   61.3199997      -6.67002227E-04
   61.4399986      -6.69010857E-04
   61.5600014      -6.70783978E-04
   61.6800003      -6.72316062E-04
   61.7999992      -6.73601520E-04
   61.9199982      -6.74634997E-04
   62.0400009      -6.75411255E-04
   62.1599998      -6.75925170E-04
   62.2799988      -6.76171912E-04
   62.4000015      -6.76146534E-04
   62.5200005      -6.75844669E-04
   62.6399994      -6.75261836E-04
   62.7599983      -6.74394018E-04
   62.8800011      -6.73237315E-04
   63.0000000      -6.71788061E-04
   63.1199989      -6.70042937E-04
   63.2400017      -6.67998567E-04
   63.3600006      -6.65652158E-04
   63.4799995      -6.63000974E-04
   63.5999985      -6.60042628E-04
   63.7200012      -6.56775024E-04
   63.8400002      -6.53196417E-04
   63.9599991      -6.49305293E-04
   64.0800018      -6.45100488E-04
   64.1999969      -6.40581187E-04
   64.3199997      -6.35746750E-04
   64.4400024      -6.30596885E-04
   64.5599976      -6.25131652E-04
   64.6800003      -6.19351398E-04
   64.8000031      -6.13256881E-04
   64.9199982      -6.06849324E-04
   65.0400009      -6.00130064E-04
   65.1600037      -5.93101140E-04
   65.2799988      -5.85764472E-04
   65.4000015      -5.78122737E-04
   65.5199966      -5.70178672E-04
   65.6399994      -5.61935420E-04
   65.7600021      -5.53396647E-04
   65.8799973      -5.44566254E-04
   66.0000000      -5.35448664E-04
   66.1200027      -5.26048592E-04
   66.2399979      -5.16371103E-04
   66.3600006      -5.06421668E-04
   66.4800034      -4.96205874E-04
   66.5999985      -4.85729863E-04
   66.7200012      -4.75000037E-04
   66.8399963      -4.64023178E-04
   66.9599991      -4.52806562E-04
   67.0800018      -4.41357552E-04
   67.1999969      -4.29684005E-04
   67.3199997      -4.17793985E-04
   67.4400024      -4.05695959E-04
   67.5599976      -3.93398630E-04
   67.6800003      -3.80911020E-04
   67.8000031      -3.68242559E-04
   67.9199982      -3.55402939E-04
   68.0400009      -3.42402229E-04
   68.1600037      -3.29250703E-04
   68.2799988      -3.15958838E-04
   68.4000015      -3.02537315E-04
   68.5199966      -2.88996991E-04
   68.6399994      -2.75348924E-04
   68.7600021      -2.61604437E-04
   68.8799973      -2.47775082E-04
   69.0000000      -2.33872663E-04
   69.1200027      -2.19908994E-04
   69.2399979      -2.05896169E-04
   69.3600006      -1.91846266E-04
   69.4800034      -1.77771552E-04
   69.5999985      -1.63684308E-04
   69.7200012      -1.49596934E-04
   69.8399963      -1.35521943E-04
   69.9599991      -1.21471909E-04
   70.0800018      -1.07459418E-04
   70.1999969      -9.34970667E-05
   70.3199997      -7.95974702E-05
   70.4400024      -6.57731507E-05
   70.5599976      -5.20366521E-05
   70.6800003      -3.84004416E-05
   70.8000031      -2.48769411E-05
   70.9199982      -1.14784598E-05
   71.0400009       1.78277276E-06
   71.1600037       1.48946710E-05
   71.2799988       2.78453172E-05
   71.4000015       4.06229592E-05
   71.5199966       5.32160593E-05
   71.6399994       6.56132906E-05
   71.7600021       7.78035683E-05
   71.8799973       8.97760765E-05
   72.0000000       1.01520258E-04
   72.1200027       1.13025832E-04
   72.2399979       1.24282771E-04
   72.3600006       1.35281327E-04
   72.4800034       1.46012026E-04
   72.5999985       1.56465743E-04
   72.7200012       1.66633676E-04