  -30.0000000       0.00000000    
  -29.8799992       0.00000000    
  -29.7600002       0.00000000    
  -29.6399994       0.00000000    
  -29.5200005       0.00000000    
  -29.3999996       0.00000000    
  -29.2800007       0.00000000    
  -29.1599998       0.00000000    
  -29.0400009       0.00000000    
  -28.9200001       0.00000000    
  -28.7999992       0.00000000    
  -28.6800003      -1.40129846E-44
  -28.5599995       1.58346726E-43
  -28.4400005       2.94272678E-42
  -28.3199997       1.58038441E-41
  -28.2000008       2.78620174E-41
  -28.0799999      -1.78381091E-40
  -27.9599991      -1.54171418E-39
  -27.8400002      -5.88893858E-39
  -27.7199993      -1.19372412E-38
  -27.6000004       5.10858769E-40
  -27.4799995       9.57574951E-38
  -27.3600006       3.58162000E-37
  -27.2399998       6.58878924E-37
  -27.1200008       1.08777363E-37
  -27.0000000      -3.12470060E-36
  -26.8799992      -8.95948679E-36
  -26.7600002      -5.23361273E-36
  -26.6399994       4.82447505E-35
  -26.5200005       2.15244954E-34
  -26.3999996       4.88390536E-34
  -26.2800007       5.20187566E-34
  -26.1599998      -7.58525520E-34
  -26.0400009      -5.11130915E-33
  -25.9200001      -1.33491225E-32
  -25.7999992      -2.07105354E-32
  -25.6800003      -1.00275700E-32
  -25.5599995       5.04737291E-32
  -25.4400005       1.89062397E-31
  -25.3199997       3.73513048E-31
  -25.2000008       4.17552944E-31
  -25.0799999      -8.43089528E-32
  -24.9599991      -1.63300954E-30
  -24.8400002      -4.29714580E-30
  -24.7199993      -6.70917181E-30
  -24.6000004      -5.02744790E-30
  -24.4799995       6.82030474E-30
  -24.3600006       3.35582851E-29
  -24.2399998       7.01503311E-29
  -24.1200008       9.03766219E-29
  -24.0000000       4.08265942E-29
  -23.8799992      -1.43869302E-28
  -23.7600002      -4.87703481E-28
  -23.6399994      -8.80895897E-28
  -23.5200005      -9.87779231E-28
  -23.3999996      -2.51033774E-28
  -23.2800007       1.87415960E-27
  -23.1599998       5.36750050E-27
  -23.0400009       8.87468672E-27
  -22.9200001       9.16255855E-27
  -22.7999992       1.58835285E-27
  -22.6800003      -1.75725222E-26
  -22.5599995      -4.67310785E-26
  -22.4400005      -7.38626797E-26
  -22.3199997      -7.41400630E-26
  -22.2000008      -1.53642171E-26
  -22.0799999       1.24680169E-25
  -21.9599991       3.29989046E-25
  -21.8400002       5.17800015E-25
  -21.7199993       5.31011808E-25
  -21.6000004       1.77624692E-25
  -21.4799995      -6.66688784E-25
  -21.3600006      -1.90714618E-24
  -21.2399998      -3.09032098E-24
  -21.1200008      -3.38089731E-24
  -21.0000000      -1.76812877E-24
  -20.8799992       2.44234511E-24
  -20.7600002       8.93197778E-24
  -20.6399994       1.57340532E-23
  -20.5200005       1.90815671E-23
  -20.3999996       1.41775675E-23
  -20.2800007      -2.88779100E-24
  -20.1599998      -3.23173436E-23
  -20.0400009      -6.77518553E-23
  -19.9200001      -9.48113179E-23
  -19.7999992      -9.26849906E-23
  -19.6800003      -4.00368998E-23
  -19.5599995       7.46558018E-23
  -19.4400005       2.40117319E-22
  -19.3199997       4.10847898E-22
  -19.2000008       5.03852352E-22
  -19.0799999       4.11427893E-22
  -18.9599991       3.65373676E-23
  -18.8400002      -6.48736388E-22
  -18.7199993      -1.53314594E-21
  -18.6000004      -2.31291735E-21
  -18.4799995      -2.49916648E-21
  -18.3600006      -1.53388245E-21
  -18.2399998       9.60264098E-22
  -18.1200008       4.82948916E-21
  -18.0000000       9.05960761E-21
  -17.8799992       1.16770543E-20
  -17.7600002       1.01185111E-20
  -17.6399994       2.21254698E-21
  -17.5200005      -1.23392131E-20
  -17.3999996      -3.04726714E-20
  -17.2800007      -4.51121882E-20
  -17.1599998      -4.63121235E-20
  -17.0400009      -2.47471614E-20
  -16.9200001       2.28709203E-20
  -16.7999992       8.82412755E-20
  -16.6800003       1.48774404E-19
  -16.5599995       1.70953068E-19
  -16.4400005       1.21497103E-19
  -16.3199997      -1.52152636E-20
  -16.2000008      -2.19299462E-19
  -16.0799999      -4.26335143E-19
  -15.9600000      -5.36585808E-19
  -15.8400002      -4.47074474E-19
  -15.7200003      -1.01393803E-19
  -15.6000004       4.59644156E-19
  -15.4799995       1.07189321E-18
  -15.3599997       1.47081295E-18
  -15.2399998       1.37404843E-18
  -15.1199999       6.08771120E-19
  -15.0000000      -7.59771079E-19
  -14.8800001      -2.36054041E-18
  -14.7600002      -3.56671760E-18
  -14.6400003      -3.68497589E-18
  -14.5200005      -2.24652225E-18
  -14.3999996       6.99638254E-19
  -14.2799997       4.42625917E-18
  -14.1599998       7.61815146E-18
  -14.0400000       8.75271570E-18
  -13.9200001       6.68927023E-18
  -13.8000002       1.26718921E-18
  -13.6800003      -6.34664706E-18
  -13.5600004      -1.37776245E-17
  -13.4399996      -1.80953220E-17
  -13.3199997      -1.68462379E-17
  -13.1999998      -9.11924108E-18
  -13.0799999       3.78778327E-18
  -12.9600000       1.84420778E-17
  -12.8400002       3.01790064E-17
  -12.7200003       3.45905955E-17
  -12.6000004       2.90841733E-17
  -12.4799995       1.39139406E-17
  -12.3599997      -7.74225006E-18
  -12.2399998      -3.07155322E-17
  -12.1199999      -4.94171528E-17
  -12.0000000      -5.93942878E-17
  -11.8800001      -5.82284528E-17
  -11.7600002      -4.54685069E-17
  -11.6400003      -2.18180831E-17
  -11.5200005       1.17290728E-17
  -11.3999996       5.39596086E-17
  -11.2799997       1.02197933E-16
  -11.1599998       1.49993706E-16
  -11.0400000       1.84904301E-16
  -10.9200001       1.88186660E-16
  -10.8000002       1.38154382E-16
  -10.6800003       1.79380204E-17
  -10.5600004      -1.73496250E-16
  -10.4399996      -4.10450143E-16
  -10.3199997      -6.34833036E-16
  -10.1999998      -7.61101296E-16
  -10.0799999      -6.95177675E-16
  -9.96000004      -3.66392598E-16
  -9.84000015       2.34386801E-16
  -9.72000027       1.02287561E-15
  -9.60000038       1.81105321E-15
  -9.47999954       2.33154480E-15
  -9.35999966       2.30146539E-15
  -9.23999977       1.51694643E-15
  -9.11999989      -4.55894837E-17
  -9.00000000      -2.15648638E-15
  -8.88000011      -4.32462709E-15
  -8.76000023      -5.87793643E-15
  -8.64000034      -6.13127467E-15
  -8.52000046      -4.60811334E-15
  -8.39999962      -1.25388246E-15
  -8.27999973       3.43397321E-15
  -8.15999985       8.42280923E-15
  -8.03999996       1.23354297E-14
  -7.92000008       1.37882962E-14
  -7.80000019       1.17977087E-14
  -7.67999983       6.14001605E-15
  -7.55999994      -2.44884446E-15
  -7.44000006      -1.23127742E-14
  -7.32000017      -2.11683444E-14
  -7.19999981      -2.65943409E-14
  -7.07999992      -2.66062010E-14
  -6.96000004      -2.01812342E-14
  -6.84000015      -7.61569186E-15
  -6.71999979       9.36317758E-15
  -6.59999990       2.77557569E-14
  -6.48000002       4.37028513E-14
  -6.36000013       5.31101279E-14
  -6.23999977       5.24258066E-14
  -6.11999989       3.94924063E-14
  -6.00000000       1.43542388E-14
  -5.88000011      -2.01531500E-14
  -5.76000023      -5.82539862E-14
  -5.63999987      -9.17475934E-14
  -5.51999998      -1.11324883E-13
  -5.40000010      -1.08631271E-13
  -5.28000021      -7.87504488E-14
  -5.15999985      -2.25108069E-14
  -5.03999996       5.21493113E-14
  -4.92000008       1.30474204E-13
  -4.80000019       1.93240674E-13
  -4.67999983       2.21010439E-13
  -4.55999994       1.99472126E-13
  -4.44000006       1.24503570E-13
  -4.32000017       5.35564491E-15
  -4.19999981      -1.35391806E-13
  -4.07999992      -2.65704017E-13
  -3.96000004      -3.51310100E-13
  -3.83999991      -3.64659773E-13
  -3.72000003      -2.93227031E-13
  -3.59999990      -1.44637435E-13
  -3.48000002       5.32452703E-14
  -3.35999990       2.57807312E-13
  -3.24000001       4.21639855E-13
  -3.11999989       5.04413514E-13
  -3.00000000       4.83381347E-13
  -2.88000011       3.59476039E-13
  -2.75999999       1.57197131E-13
  -2.64000010      -8.16635239E-14
  -2.51999998      -3.08548434E-13
  -2.40000010      -4.79751818E-13
  -2.27999997      -5.65770792E-13
  -2.16000009      -5.55962448E-13
  -2.03999996      -4.57785882E-13
  -1.91999996      -2.91768481E-13
  -1.79999995      -8.46434739E-14
  -1.67999995       1.36612943E-13
  -1.55999994       3.47943733E-13
  -1.44000006       5.28235008E-13
  -1.32000005       6.57486164E-13
  -1.20000005       7.15379687E-13
  -1.08000004       6.82369905E-13
 -0.959999979       5.44186441E-13
 -0.839999974       2.98819183E-13
 -0.720000029      -3.65953063E-14
 -0.600000024      -4.22279643E-13
 -0.479999989      -7.98372219E-13
 -0.360000014      -1.09432819E-12
 -0.239999995      -1.24350779E-12
 -0.119999997      -1.19918344E-12
  -1.11022302E-15  -9.47282075E-13
  0.119999997      -5.11887679E-13
  0.239999995       4.82919098E-14
  0.360000014       6.51422004E-13
  0.479999989       1.20839666E-12
  0.600000024       1.63824369E-12
  0.720000029       1.87887509E-12
  0.839999974       1.89120724E-12
  0.959999979       1.65765535E-12
   1.08000004       1.17853665E-12
   1.20000005       4.70817667E-13
   1.32000005      -4.27649723E-13
   1.44000006      -1.44850082E-12
   1.55999994      -2.48201069E-12
   1.67999995      -3.37240392E-12
   1.79999995      -3.92741091E-12
   1.91999996      -3.94732988E-12
   2.03999996      -3.27273712E-12
   2.16000009      -1.84207901E-12
   2.27999997       2.56706467E-13
   2.40000010       2.75975770E-12
   2.51999998       5.24269820E-12
   2.64000010       7.18550349E-12
   2.75999999       8.08051542E-12
   2.88000011       7.56215576E-12
   3.00000000       5.52535882E-12
   3.11999989       2.19634250E-12
   3.24000001      -1.87325242E-12
   3.35999990      -5.90005952E-12
   3.48000002      -9.03752160E-12
   3.59999990      -1.05822651E-11
   3.72000003      -1.01650719E-11
   3.83999991      -7.87088970E-12
   3.96000004      -4.24643523E-12
   4.07999992      -1.82104210E-13
   4.19999981       3.30996255E-12
   4.32000017       5.36778694E-12
   4.44000006       5.52868949E-12
   4.55999994       3.88398688E-12
   4.67999983       1.08982864E-12
   4.80000019      -1.77734346E-12
   4.92000008      -3.48920263E-12
   5.03999996      -2.99089833E-12
   5.15999985       3.00395966E-13
   5.28000021       6.30054342E-12
   5.40000010       1.42150580E-11
   5.51999998       2.26534520E-11
   5.63999987       2.98657141E-11
   5.76000023       3.40362252E-11
   5.88000011       3.35620316E-11
   6.00000000       2.72557723E-11
   6.11999989       1.44423622E-11
   6.23999977      -5.04839963E-12
   6.36000013      -3.09650569E-11
   6.48000002      -6.27543295E-11
   6.59999990      -9.96834074E-11
   6.71999979      -1.40946699E-10
   6.84000015      -1.85756938E-10
   6.96000004      -2.33431330E-10
   7.07999992      -2.83481766E-10
   7.19999981      -3.35706185E-10
   7.32000017      -3.90262517E-10
   7.44000006      -4.47695825E-10
   7.55999994      -5.08893205E-10
   7.67999983      -5.74957304E-10
   7.80000019      -6.47018494E-10
   7.92000008      -7.26030069E-10
   8.03999996      -8.12605816E-10
   8.15999985      -9.06951625E-10
   8.27999973      -1.00891540E-09
   8.39999962      -1.11814280E-09
   8.52000046      -1.23428712E-09
   8.64000034      -1.35720468E-09
   8.76000023      -1.48707613E-09
   8.88000011      -1.62441860E-09
   9.00000000      -1.77000492E-09
   9.11999989      -1.92474037E-09
   9.23999977      -2.08956896E-09
   9.35999966      -2.26546515E-09
   9.47999954      -2.45352849E-09
   9.60000038      -2.65514344E-09
   9.72000027      -2.87212809E-09
   9.84000015      -3.10677484E-09
   9.96000004      -3.36172090E-09
   10.0799999      -3.63964392E-09
   10.1999998      -3.94285760E-09
   10.3199997      -4.27294289E-09
   10.4399996      -4.63055949E-09
   10.5600004      -5.01556263E-09
   10.6800003      -5.42742873E-09
   10.8000002      -5.86591220E-09
   10.9200001      -6.33173247E-09
   11.0400000      -6.82706469E-09
   11.1599998      -7.35564676E-09
   11.2799997      -7.92240140E-09
   11.3999996      -8.53266702E-09
   11.5200005      -9.19124510E-09
   11.6400003      -9.90155957E-09
   11.7600002      -1.06652340E-08
   11.8800001      -1.14822543E-08
   12.0000000      -1.23517250E-08
   12.1199999      -1.32730058E-08
   12.2399998      -1.42469148E-08
   12.3599997      -1.52766013E-08
   12.4799995      -1.63678369E-08
   12.6000004      -1.75286079E-08
   12.7200003      -1.87681479E-08
   12.8400002      -2.00957277E-08
   12.9600000      -2.15195772E-08
   13.0799999      -2.30463080E-08
   13.1999998      -2.46809702E-08
   13.3199997      -2.64277240E-08
   13.4399996      -2.82908257E-08
   13.5600004      -3.02755829E-08
   13.6800003      -3.23889111E-08
   13.8000002      -3.46393207E-08
   13.9200001      -3.70363580E-08
   14.0400000      -3.95897608E-08
   14.1599998      -4.23086171E-08
   14.2799997      -4.52009949E-08
   14.3999996      -4.82740568E-08
   14.5200005      -5.15347658E-08
   14.6400003      -5.49908421E-08
   14.7600002      -5.86516151E-08
   14.8800001      -6.25284997E-08
   15.0000000      -6.66348541E-08
   15.1199999      -7.09853225E-08
   15.2399998      -7.55949685E-08
   15.3599997      -8.04785287E-08
   15.4799995      -8.56500861E-08
   15.6000004      -9.11234963E-08
   15.7200003      -9.69131264E-08
   15.8400002      -1.03034921E-07
   15.9600000      -1.09507084E-07
   16.0799999      -1.16350208E-07
   16.2000008      -1.23586659E-07
   16.3199997      -1.31239389E-07
   16.4400005      -1.39330496E-07
   16.5599995      -1.47880286E-07
   16.6800003      -1.56906893E-07
   16.7999992      -1.66426886E-07
   16.9200001      -1.76456581E-07
   17.0400009      -1.87013711E-07
   17.1599998      -1.98118798E-07
   17.2800007      -2.09795985E-07
   17.3999996      -2.22072913E-07
   17.5200005      -2.34979993E-07
   17.6399994      -2.48549242E-07
   17.7600002      -2.62813415E-07
   17.8799992      -2.77805526E-07
   18.0000000      -2.93559111E-07
   18.1200008      -3.10108817E-07
   18.2399998      -3.27491080E-07
   18.3600006      -3.45744525E-07
   18.4799995      -3.64909425E-07
   18.6000004      -3.85026652E-07
   18.7199993      -4.06136280E-07
   18.8400002      -4.28276422E-07
   18.9599991      -4.51482748E-07
   19.0799999      -4.75789278E-07
   19.2000008      -5.01229977E-07
   19.3199997      -5.27840939E-07
   19.4400005      -5.55662211E-07
   19.5599995      -5.84738871E-07
   19.6800003      -6.15120769E-07
   19.7999992      -6.46861054E-07
   19.9200001      -6.80013443E-07
   20.0400009      -7.14630346E-07
   20.1599998      -7.50761387E-07
   20.2800007      -7.88453917E-07
   20.3999996      -8.27754377E-07
   20.5200005      -8.68710970E-07
   20.6399994      -9.11376276E-07
   20.7600002      -9.55808900E-07
   20.8799992      -1.00207353E-06
   21.0000000      -1.05023923E-06
   21.1200008      -1.10037627E-06
   21.2399998      -1.15255375E-06
   21.3600006      -1.20683626E-06
   21.4799995      -1.26328371E-06
   21.6000004      -1.32195214E-06
   21.7199993      -1.38289545E-06
   21.8400002      -1.44616922E-06
   21.9599991      -1.51183212E-06
   22.0799999      -1.57994759E-06
   22.2000008      -1.65058248E-06
   22.3199997      -1.72380578E-06
   22.4400005      -1.79968481E-06
   22.5599995      -1.87828357E-06
   22.6800003      -1.95966140E-06
   22.7999992      -2.04387356E-06
   22.9200001      -2.13097223E-06
   23.0400009      -2.22101039E-06
   23.1599998      -2.31404351E-06
   23.2800007      -2.41013345E-06
   23.3999996      -2.50934636E-06
   23.5200005      -2.61175433E-06
   23.6399994      -2.71743238E-06
   23.7600002      -2.82645760E-06
   23.8799992      -2.93890639E-06
   24.0000000      -3.05485446E-06
   24.1200008      -3.17437480E-06
   24.2399998      -3.29753652E-06
   24.3600006      -3.42440308E-06
   24.4799995      -3.55503130E-06
   24.6000004      -3.68946917E-06
   24.7199993      -3.82775397E-06
   24.8400002      -3.96991527E-06
   24.9599991      -4.11597148E-06
   25.0799999      -4.26594079E-06
   25.2000008      -4.41983957E-06
   25.3199997      -4.57769238E-06
   25.4400005      -4.73953014E-06
   25.5599995      -4.90539469E-06
   25.6800003      -5.07533423E-06
   25.7999992      -5.24939924E-06
   25.9200001      -5.42763701E-06
   26.0400009      -5.61008528E-06
   26.1599998      -5.79676998E-06
   26.2800007      -5.98770384E-06
   26.3999996      -6.18289232E-06
   26.5200005      -6.38232996E-06
   26.6399994      -6.58601220E-06
   26.7600002      -6.79393133E-06
   26.8799992      -7.00607961E-06
   27.0000000      -7.22244704E-06
   27.1200008      -7.44301860E-06
   27.2399998      -7.66777248E-06
   27.3600006      -7.89667774E-06
   27.4799995      -8.12969392E-06
   27.6000004      -8.36677373E-06
   27.7199993      -8.60786349E-06
   27.8400002      -8.85290865E-06
   27.9599991      -9.10184826E-06
   28.0799999      -9.35461867E-06
   28.2000008      -9.61114529E-06
   28.3199997      -9.87134626E-06
   28.4400005      -1.01351279E-05
   28.5599995      -1.04023875E-05
   28.6800003      -1.06730113E-05
   28.7999992      -1.09468874E-05
   28.9200001      -1.12239040E-05
   29.0400009      -1.15039502E-05
   29.1599998      -1.17869231E-05
   29.2800007      -1.20727145E-05
   29.3999996      -1.23612126E-05
   29.5200005      -1.26522955E-05
   29.6399994      -1.29458213E-05
   29.7600002      -1.32416289E-05
   29.8799992      -1.35395412E-05
   30.0000000      -1.38393680E-05
   30.1200008      -1.41409055E-05
   30.2399998      -1.44439500E-05
   30.3600006      -1.47482951E-05
   30.4799995      -1.50537353E-05
   30.6000004      -1.53600595E-05
   30.7199993      -1.56670540E-05
   30.8400002      -1.59744977E-05
   30.9599991      -1.62821525E-05
   31.0799999      -1.65897691E-05
   31.2000008      -1.68970928E-05
   31.3199997      -1.72038599E-05
   31.4400005      -1.75097975E-05
   31.5599995      -1.78146347E-05
   31.6800003      -1.81180949E-05
   31.7999992      -1.84198962E-05
   31.9200001      -1.87197529E-05
   32.0400009      -1.90173741E-05
   32.1599998      -1.93124688E-05
   32.2799988      -1.96047440E-05
   32.4000015      -1.98939033E-05
   32.5200005      -2.01796538E-05
   32.6399994      -2.04617008E-05
   32.7599983      -2.07397352E-05
   32.8800011      -2.10134422E-05
   33.0000000      -2.12824816E-05
   33.1199989      -2.15464970E-05
   33.2400017      -2.18051118E-05
   33.3600006      -2.20579368E-05
   33.4799995      -2.23045845E-05
   33.5999985      -2.25446620E-05
   33.7200012      -2.27778037E-05
   33.8400002      -2.30036458E-05
   33.9599991      -2.32218463E-05
   34.0800018      -2.34320705E-05
   34.2000008      -2.36339802E-05
   34.3199997      -2.38272332E-05
   34.4399986      -2.40114805E-05
   34.5600014      -2.41863581E-05
   34.6800003      -2.43514914E-05
   34.7999992      -2.45065003E-05
   34.9199982      -2.46510062E-05
   35.0400009      -2.47846219E-05
   35.1599998      -2.49069635E-05
   35.2799988      -2.50176436E-05
   35.4000015      -2.51162728E-05
   35.5200005      -2.52024583E-05
   35.6399994      -2.52758091E-05
   35.7599983      -2.53359431E-05
   35.8800011      -2.53824801E-05
   36.0000000      -2.54150546E-05
   36.1199989      -2.54333154E-05
   36.2400017      -2.54369152E-05
   36.3600006      -2.54255119E-05
   36.4799995      -2.53987673E-05
   36.5999985      -2.53563303E-05
   36.7200012      -2.52978462E-05
   36.8400002      -2.52229547E-05
   36.9599991      -2.51313031E-05
   37.0800018      -2.50225421E-05
   37.2000008      -2.48963443E-05
   37.3199997      -2.47523967E-05
   37.4399986      -2.45904066E-05
   37.5600014      -2.44100884E-05
   37.6800003      -2.42111564E-05
   37.7999992      -2.39933252E-05
   37.9199982      -2.37562908E-05
   38.0400009      -2.34997333E-05
   38.1599998      -2.32233269E-05
   38.2799988      -2.29267407E-05
   38.4000015      -2.26096527E-05
   38.5200005      -2.22717699E-05
   38.6399994      -2.19128306E-05
   38.7599983      -2.15325999E-05
   38.8800011      -2.11308798E-05
   39.0000000      -2.07074772E-05
   39.1199989      -2.02622032E-05
   39.2400017      -1.97948611E-05
   39.3600006      -1.93052292E-05
   39.4799995      -1.87930655E-05
   39.5999985      -1.82581225E-05
   39.7200012      -1.77001602E-05
   39.8400002      -1.71189477E-05
   39.9599991      -1.65142919E-05
   40.0800018      -1.58860366E-05
   40.2000008      -1.52340654E-05
   40.3199997      -1.45582799E-05
   40.4399986      -1.38586001E-05
   40.5600014      -1.31349452E-05
   40.6800003      -1.23872187E-05
   40.7999992      -1.16153133E-05
   40.9199982      -1.08191016E-05
   41.0400009      -9.99844633E-06
   41.1599998      -9.15321107E-06
   41.2799988      -8.28326574E-06
   41.4000015      -7.38850304E-06
   41.5200005      -6.46883973E-06
   41.6399994      -5.52422352E-06
   41.7599983      -4.55462759E-06
   41.8800011      -3.56004739E-06
   42.0000000      -2.54049201E-06
   42.1199989      -1.49597201E-06
   42.2400017      -4.26494410E-07
   42.3600006       6.67945642E-07
   42.4799995       1.78736445E-06
   42.5999985       2.93178505E-06
   42.7200012       4.10122811E-06
   42.8400002       5.29570161E-06
   42.9599991       6.51519213E-06
   43.0800018       7.75965600E-06
   43.2000008       9.02902320E-06
   43.3199997       1.03231969E-05
   43.4399986       1.16420651E-05
   43.5600014       1.29855143E-05
   43.6800003       1.43534353E-05
   43.7999992       1.57457380E-05
   43.9199982       1.71623433E-05
   44.0400009       1.86031921E-05
   44.1599998       2.00682243E-05
   44.2799988       2.15573837E-05
   44.4000015       2.30705900E-05
   44.5200005       2.46077525E-05
   44.6399994       2.61687546E-05
   44.7599983       2.77534527E-05
   44.8800011       2.93616922E-05
   45.0000000       3.09932948E-05
   45.1199989       3.26480804E-05
   45.2400017       3.43258507E-05
   45.3600006       3.60264057E-05
   45.4799995       3.77495417E-05
   45.5999985       3.94950439E-05
   45.7200012       4.12626796E-05
   45.8400002       4.30522086E-05
   45.9599991       4.48633946E-05
   46.0800018       4.66959900E-05
   46.2000008       4.85497585E-05
   46.3199997       5.04244708E-05
   46.4399986       5.23199124E-05
   46.5600014       5.42358721E-05
   46.6800003       5.61721426E-05
   46.7999992       5.81285094E-05
   46.9199982       6.01047395E-05
   47.0400009       6.21005747E-05
   47.1599998       6.41157312E-05
   47.2799988       6.61498925E-05
   47.4000015       6.82027094E-05
   47.5200005       7.02738398E-05
   47.6399994       7.23629200E-05
   47.7599983       7.44696081E-05
   47.8800011       7.65935765E-05
   48.0000000       7.87345052E-05
   48.1199989       8.08921031E-05
   48.2400017       8.30660792E-05
   48.3600006       8.52561425E-05
   48.4799995       8.74619873E-05
   48.5999985       8.96832862E-05
   48.7200012       9.19196682E-05
   48.8400002       9.41707476E-05
   48.9599991       9.64361025E-05
   49.0800018       9.87152889E-05
   49.2000008       1.01007856E-04
   49.3199997       1.03313352E-04
   49.4399986       1.05631341E-04
   49.5600014       1.07961365E-04
   49.6800003       1.10302986E-04
   49.7999992       1.12655762E-04
   49.9199982       1.15019226E-04
   50.0400009       1.17392898E-04
   50.1599998       1.19776298E-04
   50.2799988       1.22168902E-04
   50.4000015       1.24570171E-04
   50.5200005       1.26979590E-04
   50.6399994       1.29396620E-04
   50.7599983       1.31820678E-04
   50.8800011       1.34251226E-04
   51.0000000       1.36687682E-04
   51.1199989       1.39129450E-04
   51.2400017       1.41575933E-04
   51.3600006       1.44026475E-04
   51.4799995       1.46480466E-04
   51.5999985       1.48937237E-04
   51.7200012       1.51396132E-04
   51.8400002       1.53856439E-04
   51.9599991       1.56317474E-04
   52.0800018       1.58778523E-04
   52.2000008       1.61238873E-04
   52.3199997       1.63697769E-04
   52.4399986       1.66154408E-04
   52.5600014       1.68608007E-04
   52.6800003       1.71057734E-04
   52.7999992       1.73502733E-04
   52.9199982       1.75942128E-04
   53.0400009       1.78375049E-04
   53.1599998       1.80800576E-04
   53.2799988       1.83217795E-04
   53.4000015       1.85625759E-04
   53.5200005       1.88023478E-04
   53.6399994       1.90409963E-04
   53.7599983       1.92784195E-04
   53.8800011       1.95145127E-04
   54.0000000       1.97491740E-04
   54.1199989       1.99822956E-04
   54.2400017       2.02137700E-04
   54.3600006       2.04434880E-04
   54.4799995       2.06713390E-04
   54.5999985       2.08972051E-04
   54.7200012       2.11209670E-04
   54.8400002       2.13425039E-04
   54.9599991       2.15616878E-04
   55.0800018       2.17783847E-04
   55.2000008       2.19924637E-04
   55.3199997       2.22037910E-04
   55.4399986       2.24122283E-04
   55.5600014       2.26176373E-04
   55.6800003       2.28198769E-04
   55.7999992       2.30188045E-04
   55.9199982       2.32142731E-04
   56.0400009       2.34061343E-04
   56.1599998       2.35942382E-04
   56.2799988       2.37784290E-04
   56.4000015       2.39585512E-04
   56.5200005       2.41344402E-04
   56.6399994       2.43059374E-04
   56.7599983       2.44728784E-04
   56.8800011       2.46351003E-04
   57.0000000       2.47924327E-04
   57.1199989       2.49447126E-04
   57.2400017       2.50917656E-04
   57.3600006       2.52334226E-04
   57.4799995       2.53695092E-04
   57.5999985       2.54998566E-04
   57.7200012       2.56242754E-04
   57.8400002       2.57425883E-04
   57.9599991       2.58546177E-04
   58.0800018       2.59601802E-04
   58.2000008       2.60590867E-04
   58.3199997       2.61511595E-04
   58.4399986       2.62362155E-04
   58.5600014       2.63140595E-04
   58.6800003       2.63845024E-04
   58.7999992       2.64473609E-04
   58.9199982       2.65024340E-04
   59.0400009       2.65495299E-04
   59.1599998       2.65884533E-04
   59.2799988       2.66190153E-04
   59.4000015       2.66410207E-04
   59.5200005       2.66542862E-04
   59.6399994       2.66586285E-04
   59.7599983       2.66538613E-04
   59.8800011       2.66398012E-04
   60.0000000       2.66162708E-04
   60.1199989       2.65830837E-04
   60.2400017       2.65400682E-04
   60.3600006       2.64870410E-04
   60.4799995       2.64238188E-04
   60.5999985       2.63502327E-04
   60.7200012       2.62661022E-04
   60.8400002       2.61712528E-04
   60.9599991       2.60655070E-04
   61.0800018       2.59486900E-04
   61.2000008       2.58206448E-04
   61.3199997       2.56812054E-04
   61.4399986       2.55302235E-04
   61.5600014       2.53675506E-04
   61.6800003       2.51930498E-04
   61.7999992       2.50065845E-04
   61.9199982       2.48080236E-04
   62.0400009       2.45972362E-04
   62.1599998       2.43741000E-04
   62.2799988       2.41384929E-04
   62.4000015       2.38903012E-04
   62.5200005       2.36294160E-04
   62.6399994       2.33557337E-04
   62.7599983       2.30691643E-04
   62.8800011       2.27696219E-04
   63.0000000       2.24570322E-04
   63.1199989       2.21313283E-04
   63.2400017       2.17924535E-04
   63.3600006       2.14403583E-04
   63.4799995       2.10750048E-04
   63.5999985       2.06963581E-04
   63.7200012       2.03043965E-04
   63.8400002       1.98991038E-04
   63.9599991       1.94804728E-04
   64.0800018       1.90485051E-04
   64.1999969       1.86032121E-04
   64.3199997       1.81446187E-04
   64.4400024       1.76727568E-04
   64.5599976       1.71876774E-04
   64.6800003       1.66894359E-04
   64.8000031       1.61781092E-04
   64.9199982       1.56537761E-04
   65.0400009       1.51165354E-04
   65.1600037       1.45664890E-04
   65.2799988       1.40037606E-04
   65.4000015       1.34284797E-04
   65.5199966       1.28407904E-04
   65.6399994       1.22408528E-04
   65.7600021       1.16288385E-04
   65.8799973       1.10049288E-04
   66.0000000       1.03693186E-04
   66.1200027       9.72221824E-05
   66.2399979       9.06384957E-05
   66.3600006       8.39445347E-05
   66.4800034       7.71428313E-05
   66.5999985       7.02360776E-05
   66.7200012       6.32270821E-05
   66.8399963       5.61187662E-05
   66.9599991       4.89141567E-05
   67.0800018       4.16163966E-05
   67.1999969       3.42287713E-05
   67.3199997       2.67547221E-05
   67.4400024       1.91978597E-05
   67.5599976       1.15619787E-05
   67.6800003       3.85101748E-06
   67.8000031      -3.93093569E-06
   67.9199982      -1.17796799E-05
   68.0400009      -1.96909077E-05
   68.1600037      -2.76602295E-05
   68.2799988      -3.56831442E-05
   68.4000015      -4.37550370E-05
   68.5199966      -5.18711822E-05
   68.6399994      -6.00267122E-05
   68.7600021      -6.82166283E-05
   68.8799973      -7.64358192E-05
   69.0000000      -8.46790281E-05
   69.1200027      -9.29409434E-05
   69.2399979      -1.01216137E-04
   69.3600006      -1.09499102E-04
   69.4800034      -1.17784235E-04
   69.5999985      -1.26065846E-04
   69.7200012      -1.34338145E-04
   69.8399963      -1.42595207E-04
   69.9599991      -1.50831067E-04
   70.0800018      -1.59039701E-04
   70.1999969      -1.67215025E-04
   70.3199997      -1.75350913E-04
   70.4400024      -1.83441254E-04
   70.5599976      -1.91479878E-04
   70.6800003      -1.99460541E-04
   70.8000031      -2.07376885E-04
   70.9199982      -2.15222535E-04
   71.0400009      -2.22991090E-04
   71.1600037      -2.30676160E-04
   71.2799988      -2.38271416E-04
   71.4000015      -2.45770527E-04
   71.5199966      -2.53167265E-04
   71.6399994      -2.60455330E-04
   71.7600021      -2.67628522E-04
   71.8799973      -2.74680555E-04
   72.0000000      -2.81605200E-04
   72.1200027      -2.88396259E-04
   72.2399979      -2.95047503E-04
   72.3600006      -3.01552936E-04
   72.4800034      -3.07906623E-04
   72.5999985      -3.14102712E-04
   72.7200012      -3.20135674E-04