  -30.0000000       0.00000000    
  -29.8799992       0.00000000    
  -29.7600002       0.00000000    
  -29.6399994       0.00000000    
  -29.5200005       0.00000000    
  -29.3999996       0.00000000    
  -29.2800007       1.02294788E-42
  -29.1599998       2.53929295E-41
  -29.0400009       2.06554196E-40
  -28.9200001       9.48157777E-40
  -28.7999992       2.80622069E-39
  -28.6800003       5.19869819E-39
  -28.5599995       3.13724662E-39
  -28.4400005      -1.65326482E-38
  -28.3199997      -7.30390279E-38
  -28.2000008      -1.73485514E-37
  -28.0799999      -2.73483955E-37
  -27.9599991      -2.33219942E-37
  -27.8400002       1.81181087E-37
  -27.7199993       1.18251080E-36
  -27.6000004       2.70177859E-36
  -27.4799995       4.06602915E-36
  -27.3600006       3.85775665E-36
  -27.2399998       2.86569729E-37
  -27.1200008      -7.72891338E-36
  -27.0000000      -1.89950617E-35
  -26.8799992      -2.88063959E-35
  -26.7600002      -2.92450941E-35
  -26.6399994      -1.19855962E-35
  -26.5200005       2.65262641E-35
  -26.3999996       7.93456965E-35
  -26.2800007       1.26057500E-34
  -26.1599998       1.36065514E-34
  -26.0400009       7.98309151E-35
  -25.9200001      -5.39472527E-35
  -25.7999992      -2.41556076E-34
  -25.6800003      -4.17199659E-34
  -25.5599995      -4.84403084E-34
  -25.4400005      -3.49361995E-34
  -25.3199997       2.99071161E-35
  -25.2000008       5.95999375E-34
  -25.0799999       1.17145818E-33
  -24.9599991       1.48899805E-33
  -24.8400002       1.28161284E-33
  -24.7199993       4.13823143E-34
  -24.6000004      -9.96142290E-34
  -24.4799995      -2.53215350E-33
  -24.3600006      -3.57118233E-33
  -24.2399998      -3.51653580E-33
  -24.1200008      -2.10343253E-33
  -24.0000000       3.62850770E-34
  -23.8799992       2.99441280E-33
  -23.7600002       4.62630863E-33
  -23.6399994       4.38760503E-33
  -23.5200005       2.31263379E-33
  -23.3999996      -3.45416490E-34
  -23.2800007      -1.40388225E-33
  -23.1599998       1.26514995E-33
  -23.0400009       8.30972605E-33
  -22.9200001       1.76313162E-32
  -22.7999992       2.40440508E-32
  -22.6800003       2.04715838E-32
  -22.5599995       7.73938685E-34
  -22.4400005      -3.64676933E-32
  -22.3199997      -8.46191598E-32
  -22.2000008      -1.27891799E-31
  -22.0799999      -1.43945948E-31
  -21.9599991      -1.10603745E-31
  -21.8400002      -1.54368093E-32
  -21.7199993       1.34704165E-31
  -21.6000004       3.08212338E-31
  -21.4799995       4.51062996E-31
  -21.3600006       4.98873361E-31
  -21.2399998       3.97340553E-31
  -21.1200008       1.25937022E-31
  -21.0000000      -2.83191353E-31
  -20.8799992      -7.39827368E-31
  -20.7600002      -1.10987647E-30
  -20.6399994      -1.24945204E-30
  -20.5200005      -1.05160486E-30
  -20.3999996      -4.91734960E-31
  -20.2800007       3.45199527E-31
  -20.1599998       1.26951321E-30
  -20.0400009       2.02832321E-30
  -19.9200001       2.37552437E-30
  -19.7999992       2.14986557E-30
  -19.6800003       1.33468121E-30
  -19.5599995       7.62747310E-32
  -19.4400005      -1.34895575E-30
  -19.3199997      -2.60996722E-30
  -19.2000008      -3.41352839E-30
  -19.0799999      -3.58047642E-30
  -18.9599991      -3.07859319E-30
  -18.8400002      -2.00329534E-30
  -18.7199993      -5.20719876E-31
  -18.6000004       1.19465143E-30
  -18.4799995       2.99328765E-30
  -18.3600006       4.73601370E-30
  -18.2399998       6.24042303E-30
  -18.1200008       7.22355761E-30
  -18.0000000       7.28680184E-30
  -17.8799992       5.97631296E-30
  -17.7600002       2.92079896E-30
  -17.6399994      -1.98716718E-30
  -17.5200005      -8.42214807E-30
  -17.3999996      -1.55241524E-29
  -17.2800007      -2.19003573E-29
  -17.1599998      -2.57457322E-29
  -17.0400009      -2.50908318E-29
  -16.9200001      -1.81907935E-29
  -16.7999992      -4.06658641E-30
  -16.6800003       1.68334583E-29
  -16.5599995       4.19833077E-29
  -16.4400005       6.64042228E-29
  -16.3199997       8.29241277E-29
  -16.2000008       8.33948731E-29
  -16.0799999       6.09570790E-29
  -15.9600000       1.30216141E-29
  -15.8400002      -5.58554531E-29
  -15.7200003      -1.32392986E-28
  -15.6000004      -1.95511440E-28
  -15.4799995      -2.20516427E-28
  -15.3599997      -1.86346144E-28
  -15.2399998      -8.44513720E-29
  -15.1199999       7.33146099E-29
  -15.0000000       2.51119526E-28
  -14.8800001       3.92992794E-28
  -14.7600002       4.35745887E-28
  -14.6400003       3.29963390E-28
  -14.5200005       6.45719171E-29
  -14.3999996      -3.12885688E-28
  -14.2799997      -6.90071099E-28
  -14.1599998      -9.06590210E-28
  -14.0400000      -7.97579109E-28
  -13.9200001      -2.59288622E-28
  -13.8000002       6.79182421E-28
  -13.6800003       1.80380249E-27
  -13.5600004       2.71344174E-27
  -13.4399996       2.89261735E-27
  -13.3199997       1.86659917E-27
  -13.1999998      -5.82474352E-28
  -13.0799999      -4.19423014E-27
  -12.9600000      -8.08878251E-27
  -12.8400002      -1.08019979E-26
  -12.7200003      -1.05729255E-26
  -12.6000004      -5.89817740E-27
  -12.4799995       3.72980986E-27
  -12.3599997       1.70990855E-26
  -12.2399998       3.08641952E-26
  -12.1199999       3.97663519E-26
  -12.0000000       3.77274115E-26
  -11.8800001       1.98330355E-26
  -11.7600002      -1.51250998E-26
  -11.6400003      -6.22687294E-26
  -11.5200005      -1.09436196E-25
  -11.3999996      -1.38240195E-25
  -11.2799997      -1.28101249E-25
  -11.1599998      -6.31723880E-26
  -11.0400000       5.90993451E-26
  -10.9200001       2.20286104E-25
  -10.8000002       3.77579817E-25
  -10.6800003       4.68122338E-25
  -10.5600004       4.23233194E-25
  -10.4399996       1.91976672E-25
  -10.3199997      -2.30329808E-25
  -10.1999998      -7.77123641E-25
  -10.0799999      -1.30041275E-24
  -9.96000004      -1.58664846E-24
  -9.84000015      -1.40557698E-24
  -9.72000027      -5.89912699E-25
  -9.60000038       8.69070113E-25
  -9.47999954       2.73835511E-24
  -9.35999966       4.51011619E-24
  -9.23999977       5.45629490E-24
  -9.11999989       4.79399647E-24
  -9.00000000       1.95475117E-24
  -8.88000011      -3.09173502E-24
  -8.76000023      -9.55367906E-24
  -8.64000034      -1.56996226E-23
  -8.52000046      -1.90345810E-23
  -8.39999962      -1.68516009E-23
  -8.27999973      -7.14154436E-24
  -8.15999985       1.02978652E-23
  -8.03999996       3.28662078E-23
  -7.92000008       5.47050425E-23
  -7.80000019       6.72245428E-23
  -7.67999983       6.09121914E-23
  -7.55999994       2.84011856E-23
  -7.44000006      -3.16983686E-23
  -7.32000017      -1.11230877E-22
  -7.19999981      -1.90631456E-22
  -7.07999992      -2.40307807E-22
  -6.96000004      -2.26397501E-22
  -6.84000015      -1.21009269E-22
  -6.71999979       8.45099683E-23
  -6.59999990       3.66558545E-22
  -6.48000002       6.61338018E-22
  -6.36000013       8.67403179E-22
  -6.23999977       8.63084411E-22
  -6.11999989       5.40053721E-22
  -6.00000000      -1.50795546E-22
  -5.88000011      -1.15126780E-21
  -5.76000023      -2.26153522E-21
  -5.63999987      -3.13864858E-21
  -5.51999998      -3.34499763E-21
  -5.40000010      -2.45489636E-21
  -5.28000021      -2.11288618E-22
  -5.15999985       3.29684102E-21
  -5.03999996       7.48764537E-21
  -4.92000008       1.12365176E-20
  -4.80000019       1.29892592E-20
  -4.67999983       1.10815618E-20
  -4.55999994       4.25915095E-21
  -4.44000006      -7.67820225E-21
  -4.32000017      -2.32658571E-20
  -4.19999981      -3.90206847E-20
  -4.07999992      -4.95933777E-20
  -3.96000004      -4.86294441E-20
  -3.83999991      -3.04053757E-20
  -3.72000003       7.91766539E-21
  -3.59999990       6.38627894E-20
  -3.48000002       1.27744462E-19
  -3.35999990       1.82205865E-19
  -3.24000001       2.04051511E-19
  -3.11999989       1.68920117E-19
  -3.00000000       5.86920834E-20
  -2.88000011      -1.29405647E-19
  -2.75999999      -3.74086564E-19
  -2.64000010      -6.24668342E-19
  -2.51999998      -8.02483171E-19
  -2.40000010      -8.11917062E-19
  -2.27999997      -5.62337284E-19
  -2.16000009       6.20094149E-22
  -2.03999996       8.59576056E-19
  -1.91999996       1.89471468E-18
  -1.79999995       2.86968393E-18
  -1.67999995       3.44651875E-18
  -1.55999994       3.23914353E-18
  -1.44000006       1.90792993E-18
  -1.32000005      -7.13388478E-19
  -1.20000005      -4.48092795E-18
  -1.08000004      -8.83007032E-18
 -0.959999979      -1.27364548E-17
 -0.839999974      -1.47942659E-17
 -0.720000029      -1.34448043E-17
 -0.600000024      -7.36019684E-18
 -0.479999989       4.05529803E-18
 -0.360000014       2.01349476E-17
 -0.239999995       3.85279686E-17
 -0.119999997       5.50571846E-17
  -1.11022302E-15   6.40263205E-17
  0.119999997       5.90997982E-17
  0.239999995       3.47755034E-17
  0.360000014      -1.16828599E-17
  0.479999989      -7.81724722E-17
  0.600000024      -1.56037074E-16
  0.720000029      -2.29338326E-16
  0.839999974      -2.75754382E-16
  0.959999979      -2.69599682E-16
   1.08000004      -1.87117903E-16
   1.20000005      -1.36726760E-17
   1.32000005       2.48195556E-16
   1.44000006       5.71547657E-16
   1.55999994       9.00877985E-16
   1.67999995       1.15339206E-15
   1.79999995       1.22776769E-15
   1.91999996       1.02142835E-15
   2.03999996       4.55684403E-16
   2.16000009      -4.94103488E-16
   2.27999997      -1.76857451E-15
   2.40000010      -3.20196792E-15
   2.51999998      -4.51579268E-15
   2.64000010      -5.33671880E-15
   2.75999999      -5.24443668E-15
   2.88000011      -3.85052580E-15
   3.00000000      -9.02638543E-16
   3.11999989       3.59975577E-15
   3.24000001       9.29979242E-15
   3.35999990       1.54156371E-14
   3.48000002       2.07409146E-14
   3.59999990       2.37394943E-14
   3.72000003       2.27500886E-14
   3.83999991       1.62980998E-14
   3.96000004       3.48802429E-15
   4.07999992      -1.55771443E-14
   4.19999981      -3.94279708E-14
   4.32000017      -6.50077458E-14
   4.44000006      -8.76975426E-14
   4.55999994      -1.01669954E-13
   4.67999983      -1.00615920E-13
   4.80000019      -7.88296024E-14
   4.92000008      -3.25596416E-14
   5.03999996       3.85473954E-14
   5.15999985       1.30160775E-13
   5.28000021       2.32436439E-13
   5.40000010       3.29953404E-13
   5.51999998       4.02676238E-13
   5.63999987       4.28094002E-13
   5.76000023       3.84512382E-13
   5.88000011       2.55258027E-13
   6.00000000       3.33158726E-14
   6.11999989      -2.74299003E-13
   6.23999977      -6.43286910E-13
   6.36000013      -1.03082451E-12
   6.48000002      -1.37713788E-12
   6.59999990      -1.61041894E-12
   6.71999979      -1.65518944E-12
   6.84000015      -1.44366105E-12
   6.96000004      -9.29027580E-13
   7.07999992      -9.90273740E-14
   7.19999981       1.01233865E-12
   7.32000017       2.31727549E-12
   7.44000006       3.67308311E-12
   7.55999994       4.88922141E-12
   7.67999983       5.74342830E-12
   7.80000019       6.00658672E-12
   7.92000008       5.47463117E-12
   8.03999996       4.00436845E-12
   8.15999985       1.54886043E-12
   8.27999973      -1.81280902E-12
   8.39999962      -5.85676126E-12
   8.52000046      -1.02114029E-11
   8.64000034      -1.43738918E-11
   8.76000023      -1.77475170E-11
   8.88000011      -1.96989577E-11
   9.00000000      -1.96315672E-11
   9.11999989      -1.70682149E-11
   9.23999977      -1.17349247E-11
   9.35999966      -3.63525811E-12
   9.47999954       6.89491086E-12
   9.60000038       1.91616688E-11
   9.72000027       3.21236128E-11
   9.84000015       4.44428036E-11
   9.96000004       5.45763434E-11
   10.0799999       6.09046702E-11
   10.1999998       6.18886678E-11
   10.3199997       5.62442662E-11
   10.4399996       4.31205939E-11
   10.5600004       2.22663797E-11
   10.6800003      -5.83145641E-12
   10.8000002      -3.98523159E-11
   10.9200001      -7.76038192E-11
   11.0400000      -1.16053389E-10
   11.1599998      -1.51439555E-10
   11.2799997      -1.79470022E-10
   11.3999996      -1.95609640E-10
   11.5200005      -1.95456401E-10
   11.6400003      -1.75196496E-10
   11.7600002      -1.32120176E-10
   11.8800001      -6.51689258E-11
   12.0000000       2.45295416E-11
   12.1199999       1.33196218E-10
   12.2399998       2.54077093E-10
   12.3599997       3.77342019E-10
   12.4799995       4.90290752E-10
   12.6000004       5.77943748E-10
   12.7200003       6.24073737E-10
   12.8400002       6.12700168E-10
   12.9600000       5.30013922E-10
   13.0799999       3.66636083E-10
   13.1999998       1.20036758E-10
   13.3199997      -2.03137021E-10
   13.4399996      -5.85144544E-10
   13.5600004      -9.96016492E-10
   13.6800003      -1.39358691E-09
   13.8000002      -1.72504766E-09
   13.9200001      -1.93029481E-09
   14.0400000      -1.94718797E-09
   14.1599998      -1.71864267E-09
   14.2799997      -1.20121446E-09
   14.3999996      -3.74553333E-10
   14.5200005       7.49179607E-10
   14.6400003       2.11709783E-09
   14.7600002       3.62991992E-09
   14.8800001       5.14025267E-09
   15.0000000       6.45614850E-09
   15.1199999       7.35099315E-09
   15.2399998       7.58031238E-09
   15.3599997       6.90545843E-09
   15.4799995       5.12330001E-09
   15.6000004       2.10016093E-09
   15.7200003      -2.19269647E-09
   15.8400002      -7.64559882E-09
   15.9600000      -1.39832323E-08
   16.0799999      -2.07482529E-08
   16.2000008      -2.73002954E-08
   16.3199997      -3.28343930E-08
   16.4400005      -3.64217492E-08
   16.5599995      -3.70741340E-08
   16.6800003      -3.38311246E-08
   16.7999992      -2.58667736E-08
   16.9200001      -1.26097417E-08
   17.0400009       6.13187856E-09
   17.1599998       3.00521101E-08
   17.2800007       5.82479132E-08
   17.3999996       8.91530689E-08
   17.5200005       1.20518820E-07
   17.6399994       1.49453442E-07
   17.7600002       1.72530292E-07
   17.8799992       1.85969498E-07
   18.0000000       1.85893668E-07
   18.1200008       1.68651340E-07
   18.2399998       1.31195634E-07
   18.3600006       7.14989241E-08
   18.4799995      -1.10218537E-08
   18.6000004      -1.15099297E-07
   18.7199993      -2.37262469E-07
   18.8400002      -3.71571076E-07
   18.9599991      -5.09469544E-07
   19.0799999      -6.39790699E-07
   19.2000008      -7.48930802E-07
   19.3199997      -8.21209426E-07
   19.4400005      -8.39417339E-07
   19.5599995      -7.85541260E-07
   19.6800003      -6.41645329E-07
   19.7999992      -3.90871719E-07
   19.9200001      -1.85160776E-08
   20.0400009       4.86878491E-07
   20.1599998       1.13247017E-06
   20.2800007       1.92017410E-06
   20.3999996       2.84588941E-06
   20.5200005       3.89895604E-06
   20.6399994       5.06188871E-06
   20.7600002       6.31043076E-06
   20.8799992       7.61394222E-06
   21.0000000       8.93613469E-06
   21.1200008       1.02361300E-05
   21.2399998       1.14698187E-05
   21.3600006       1.25914585E-05
   21.4799995       1.35554519E-05
   21.6000004       1.43182278E-05
   21.7199993       1.48401241E-05
   21.8400002       1.50872029E-05
   21.9599991       1.50328915E-05
   22.0799999       1.46593711E-05
   22.2000008       1.39586436E-05
   22.3199997       1.29332129E-05
   22.4400005       1.15963376E-05
   22.5599995       9.97185452E-06
   22.6800003       8.09354970E-06
   22.7999992       6.00411613E-06
   22.9200001       3.75373452E-06
   23.0400009       1.39834628E-06
   23.1599998      -1.00231114E-06
   23.2800007      -3.38681821E-06
   23.3999996      -5.69424265E-06
   23.5200005      -7.86627334E-06
   23.6399994      -9.84922463E-06
   23.7600002      -1.15958392E-05
   23.8799992      -1.30667995E-05
   24.0000000      -1.42319268E-05
   24.1200008      -1.50709893E-05
   24.2399998      -1.55741327E-05
   24.3600006      -1.57419054E-05
   24.4799995      -1.55849211E-05
   24.6000004      -1.51231488E-05
   24.7199993      -1.43849174E-05
   24.8400002      -1.34056454E-05
   24.9599991      -1.22263864E-05
   25.0799999      -1.08922422E-05
   25.2000008      -9.45069314E-06
   25.3199997      -7.94993684E-06
   25.4400005      -6.43727299E-06
   25.5599995      -4.95759105E-06
   25.6800003      -3.55201246E-06
   25.7999992      -2.25671965E-06
   25.9200001      -1.10200369E-06
   26.0400009      -1.11553774E-07
   26.1599998       6.98000349E-07
   26.2800007       1.31728916E-06
   26.3999996       1.74414834E-06
   26.5200005       1.98332100E-06
   26.6399994       2.04593493E-06
   26.7600002       1.94878044E-06
   26.8799992       1.71341594E-06
   27.0000000       1.36514268E-06
   27.1200008       9.31879754E-07
   27.2399998       4.42986334E-07
   27.3600006      -7.19279640E-08
   27.4799995      -5.84161398E-07
   27.6000004      -1.06700418E-06
   27.7199993      -1.49670996E-06
   27.8400002      -1.85332055E-06
   27.9599991      -2.12131590E-06
   28.0799999      -2.29006992E-06
   28.2000008      -2.35409630E-06
   28.3199997      -2.31308650E-06
   28.4400005      -2.17173647E-06
   28.5599995      -1.93938104E-06
   28.6800003      -1.62944605E-06
   28.7999992      -1.25875158E-06
   28.9200001      -8.46689943E-07
   29.0400009      -4.14313035E-07
   29.1599998       1.66323115E-08
   29.2800007       4.24687784E-07
   29.3999996       7.89646890E-07
   29.5200005       1.09346274E-06
   29.6399994       1.32106811E-06
   29.7600002       1.46107550E-06
   29.8799992       1.50632957E-06
   30.0000000       1.45428692E-06
   30.1200008       1.30720491E-06
   30.2399998       1.07212145E-06
   30.3600006       7.60620878E-07
   30.4799995       3.88382119E-07
   30.6000004      -2.54799044E-08
   30.7199993      -4.59263731E-07
   30.8400002      -8.89692217E-07
   30.9599991      -1.29304738E-06
   31.0799999      -1.64637981E-06
   31.2000008      -1.92873699E-06
   31.3199997      -2.12234659E-06
   31.4400005      -2.21368987E-06
   31.5599995      -2.19439380E-06
   31.6800003      -2.06188702E-06
   31.7999992      -1.81975884E-06
   31.9200001      -1.47778917E-06
   32.0400009      -1.05162314E-06
   32.1599998      -5.62091714E-07
   32.2799988      -3.42012676E-08
   32.4000015       5.04165826E-07
   32.5200005       1.02377192E-06
   32.6399994       1.49568280E-06
   32.7599983       1.89296611E-06
   32.8800011       2.19232584E-06
   33.0000000       2.37556492E-06
   33.1199989       2.43078057E-06
   33.2400017       2.35320431E-06
   33.3600006       2.14562715E-06
   33.4799995       1.81836799E-06
   33.5999985       1.38878409E-06
   33.7200012       8.80340338E-07
   33.8400002       3.21296142E-07
   33.9599991      -2.56913438E-07
   34.0800018      -8.21500237E-07
   34.2000008      -1.34023378E-06
   34.3199997      -1.78331868E-06
   34.4399986      -2.12511941E-06
   34.5600014      -2.34562617E-06
   34.6800003      -2.43156705E-06
   34.7999992      -2.37710833E-06
   34.9199982      -2.18410037E-06
   35.0400009      -1.86186412E-06
   35.1599998      -1.42654460E-06
   35.2799988      -9.00079669E-07
   35.4000015      -3.08860479E-07
   35.5200005       3.17825538E-07
   35.6399994       9.49468017E-07
   35.7599983       1.55601867E-06
   35.8800011       2.10948792E-06
   36.0000000       2.58536465E-06
   36.1199989       2.96378153E-06
   36.2400017       3.23037466E-06
   36.3600006       3.37680012E-06
   36.4799995       3.40089628E-06
   36.5999985       3.30649686E-06
   36.7200012       3.10292990E-06
   36.8400002       2.80423683E-06
   36.9599991       2.42818146E-06
   37.0800018       1.99510487E-06
   37.2000008       1.52670759E-06
   37.3199997       1.04482876E-06
   37.4399986       5.70291775E-07
   37.5600014       1.21882010E-07
   37.6800003      -2.84492245E-07
   37.7999992      -6.36414597E-07
   37.9199982      -9.25326731E-07
   38.0400009      -1.14663567E-06
   38.1599998      -1.29957130E-06
   38.2799988      -1.38681617E-06
   38.4000015      -1.41394764E-06
   38.5200005      -1.38874270E-06
   38.6399994      -1.32040259E-06
   38.7599983      -1.21876292E-06
   38.8800011      -1.09354608E-06
   39.0000000      -9.53712970E-07
   39.1199989      -8.06957132E-07
   39.2400017      -6.59369107E-07
   39.3600006      -5.15285649E-07
   39.4799995      -3.77319395E-07
   39.5999985      -2.46550229E-07
   39.7200012      -1.22844867E-07
   39.8400002      -5.26118082E-09
   39.9599991       1.07511603E-07
   40.0800018       2.16727969E-07
   40.2000008       3.23221769E-07
   40.3199997       4.27139952E-07
   40.4399986       5.27798079E-07
   40.5600014       6.23667574E-07
   40.6800003       7.12488145E-07
   40.7999992       7.91485434E-07
   40.9199982       8.57662826E-07
   41.0400009       9.08130630E-07
   41.1599998       9.40429857E-07
   41.2799988       9.52814446E-07
   41.4000015       9.44457042E-07
   41.5200005       9.15555972E-07
   41.6399994       8.67330812E-07
   41.7599983       8.01907447E-07
   41.8800011       7.22105597E-07
   42.0000000       6.31153739E-07
   42.1199989       5.32363231E-07
   42.2400017       4.28799638E-07
   42.3600006       3.22987859E-07
   42.4799995       2.16684640E-07
   42.5999985       1.10744679E-07
   42.7200012       5.09575360E-09
   42.8400002      -1.01171601E-07
   42.9599991      -2.09607137E-07
   43.0800018      -3.22113380E-07
   43.2000008      -4.40594476E-07
   43.3199997      -5.66574158E-07
   43.4399986      -7.00819328E-07
   43.5600014      -8.43007513E-07
   43.6800003      -9.91471779E-07
   43.7999992      -1.14305328E-06
   43.9199982      -1.29307989E-06
   44.0400009      -1.43548300E-06
   44.1599998      -1.56304998E-06
   44.2799988      -1.66780001E-06
   44.4000015      -1.74146294E-06
   44.5200005      -1.77602953E-06
   44.6399994      -1.76433480E-06
   44.7599983      -1.70063788E-06
   44.8800011      -1.58115120E-06
   45.0000000      -1.40448299E-06
   45.1199989      -1.17195236E-06
   45.2400017      -8.87751412E-07
   45.3600006      -5.58930992E-07
   45.4799995      -1.95204223E-07
   45.5999985       1.91430274E-07
   45.7200012       5.87228101E-07
   45.8400002       9.77373702E-07
   45.9599991       1.34674940E-06
   46.0800018       1.68075246E-06
   46.2000008       1.96610677E-06
   46.3199997       2.19161211E-06
   46.4399986       2.34878257E-06
   46.5600014       2.43232057E-06
   46.6800003       2.44039597E-06
   46.7999992       2.37470431E-06
   46.9199982       2.24029804E-06
   47.0400009       2.04520143E-06
   47.1599998       1.79983715E-06
   47.2799988       1.51630866E-06
   47.4000015       1.20759057E-06
   47.5200005       8.86694068E-07
   47.6399994       5.65869811E-07
   47.7599983       2.55911942E-07
   47.8800011      -3.43815714E-08
   48.0000000      -2.98553658E-07
   48.1199989      -5.32613797E-07
   48.2400017      -7.34942944E-07
   48.3600006      -9.05995364E-07
   48.4799995      -1.04783555E-06
   48.5999985      -1.16356318E-06
   48.7200012      -1.25668817E-06
   48.8400002      -1.33052436E-06
   48.9599991      -1.38766541E-06
   49.0800018      -1.42959516E-06
   49.2000008      -1.45647471E-06
   49.3199997      -1.46712455E-06
   49.4399986      -1.45920092E-06
   49.5600014      -1.42954639E-06
   49.6800003      -1.37467225E-06
   49.7999992      -1.29131888E-06
   49.9199982      -1.17703087E-06
   50.0400009      -1.03068066E-06
   50.1599998      -8.52884568E-07
   50.2799988      -6.46262322E-07
   50.4000015      -4.15512574E-07
   50.5200005      -1.67294701E-07
   50.6399994       9.00726889E-08
   50.7599983       3.47068010E-07
   50.8800011       5.93534935E-07
   51.0000000       8.19312788E-07
   51.1199989       1.01487456E-06
   51.2400017       1.17192076E-06
   51.3600006       1.28388615E-06
   51.4799995       1.34632489E-06
   51.5999985       1.35715266E-06
   51.7200012       1.31674062E-06
   51.8400002       1.22786412E-06
   51.9599991       1.09552184E-06
   52.0800018       9.26646976E-07
   52.2000008       7.29735518E-07
   52.3199997       5.14417877E-07
   52.4399986       2.90995530E-07
   52.5600014       6.99640310E-08
   52.6800003      -1.38461516E-07
   52.7999992      -3.24804489E-07
   52.9199982      -4.80756057E-07
   53.0400009      -5.99563691E-07
   53.1599998      -6.76364891E-07
   53.2799988      -7.08451864E-07
   53.4000015      -6.95451718E-07
   53.5200005      -6.39403765E-07
   53.6399994      -5.44720933E-07
   53.7599983      -4.18021784E-07
   53.8800011      -2.67827915E-07
   54.0000000      -1.04129448E-07
   54.1199989       6.21689153E-08
   54.2400017       2.19896577E-07
   54.3600006       3.58324939E-07
   54.4799995       4.67888640E-07
   54.5999985       5.40868939E-07
   54.7200012       5.71983776E-07
   54.8400002       5.58833790E-07
   54.9599991       5.02158969E-07
   55.0800018       4.05874658E-07
   55.2000008       2.76871589E-07
   55.3199997       1.24582456E-07
   55.4399986      -3.96610744E-08
   55.5600014      -2.03439143E-07
   55.6800003      -3.54163944E-07
   55.7999992      -4.80039205E-07
   55.9199982      -5.70983104E-07
   56.0400009      -6.19438538E-07
   56.1599998      -6.21004517E-07
   56.2799988      -5.74832427E-07
   56.4000015      -4.83753411E-07
   56.5200005      -3.54121767E-07
   56.6399994      -1.95384189E-07
   56.7599983      -1.94058014E-08
   56.8800011       1.60396013E-07
   57.0000000       3.30044799E-07
   57.1199989       4.76048768E-07
   57.2400017       5.86417002E-07
   57.3600006       6.51571327E-07
   57.4799995       6.65086134E-07
   57.5999985       6.24203324E-07
   57.7200012       5.30084606E-07
   57.8400002       3.87784581E-07
   57.9599991       2.05947245E-07
   58.0800018      -3.75239706E-09
   58.2000008      -2.27382401E-07
   58.3199997      -4.49691328E-07
   58.4399986      -6.55145243E-07
   58.5600014      -8.28994814E-07
   58.6800003      -9.58300234E-07
   58.7999992      -1.03284628E-06
   58.9199982      -1.04588366E-06
   59.0400009      -9.94646598E-07
   59.1599998      -8.80611424E-07
   59.2799988      -7.09471351E-07
   59.4000015      -4.90830132E-07
   59.5200005      -2.37625855E-07
   59.6399994       3.46804754E-08
   59.7599983       3.09104678E-07
   59.8800011       5.68265250E-07
   60.0000000       7.95564290E-07
   60.1199989       9.76345973E-07
   60.2400017       1.09895325E-06
   60.3600006       1.15560670E-06
   60.4799995       1.14303998E-06
   60.5999985       1.06283881E-06
   60.7200012       9.21449725E-07
   60.8400002       7.29846533E-07
   60.9599991       5.02866101E-07
   61.0800018       2.58248377E-07
   61.2000008       1.54403228E-08
   61.3199997      -2.05760983E-07
   61.4399986      -3.86632280E-07
   61.5600014      -5.10914845E-07
   61.6800003      -5.66069332E-07
   61.7999992      -5.44297620E-07
   61.9199982      -4.43250201E-07
   62.0400009      -2.66356182E-07
   62.1599998      -2.27428458E-08
   62.2799988       2.73259502E-07
   62.4000015       6.02997659E-07
   62.5200005       9.44701014E-07
   62.6399994       1.27492558E-06
   62.7599983       1.57012937E-06
   62.8800011       1.80826135E-06
   63.0000000       1.97024360E-06
   63.1199989       2.04123580E-06
   63.2400017       2.01159241E-06
   63.3600006       1.87744149E-06
   63.4799995       1.64085668E-06
   63.5999985       1.30962383E-06
   63.7200012       8.96635299E-07
   63.8400002       4.18980903E-07
   63.9599991      -1.03177648E-07
   64.0800018      -6.47845809E-07
   64.1999969      -1.19244510E-06
   64.3199997      -1.71497493E-06
   64.4400024      -2.19500839E-06
   64.5599976      -2.61446644E-06
   64.6800003      -2.95814584E-06
   64.8000031      -3.21400125E-06
   64.9199982      -3.37321376E-06
   65.0400009      -3.43009287E-06
   65.1600037      -3.38187624E-06
   65.2799988      -3.22849178E-06
   65.4000015      -2.97234556E-06
   65.5199966      -2.61817331E-06
   65.6399994      -2.17298771E-06
   65.7600021      -1.64611845E-06
   65.8799973      -1.04932121E-06
   66.0000000      -3.96911076E-07
   66.1200027       2.94139255E-07
   66.2399979       1.00420334E-06
   66.3600006       1.71117279E-06
   66.4800034       2.39085011E-06
   66.5999985       3.01759178E-06
   66.7200012       3.56521423E-06
   66.8399963       4.00813133E-06
   66.9599991       4.32267598E-06
   67.0800018       4.48852006E-06
   67.1999969       4.49009622E-06
   67.3199997       4.31790522E-06
   67.4400024       3.96960058E-06
   67.5599976       3.45074204E-06
   67.6800003       2.77512754E-06
   67.8000031       1.96465794E-06
   67.9199982       1.04869434E-06
   68.0400009       6.29294803E-08
   68.1600037      -9.52183541E-07
   68.2799988      -1.95336133E-06
   68.4000015      -2.89666946E-06
   68.5199966      -3.73981925E-06
   68.6399994      -4.44444549E-06
   68.7600021      -4.97821475E-06
   68.8799973      -5.31664136E-06
   69.0000000      -5.44448767E-06
   69.1200027      -5.35665231E-06
   69.2399979      -5.05849675E-06
   69.3600006      -4.56557154E-06
   69.4800034      -3.90275591E-06
   69.5999985      -3.10285805E-06
   69.7200012      -2.20475658E-06
   69.8399963      -1.25120039E-06
   69.9599991      -2.86397494E-07
   70.0800018       6.46445642E-07
   70.1999969       1.50748383E-06
   70.3199997       2.26233556E-06
   70.4400024       2.88379601E-06
   70.5599976       3.35304821E-06
   70.6800003       3.66030235E-06
   70.8000031       3.80482675E-06
   70.9199982       3.79438939E-06
   71.0400009       3.64416132E-06
   71.1600037       3.37518441E-06
   71.2799988       3.01253726E-06
   71.4000015       2.58335126E-06
   71.5199966       2.11484235E-06
   71.6399994       1.63251309E-06
   71.7600021       1.15866123E-06
   71.8799973       7.11296082E-07
   72.0000000       3.03521489E-07
   72.1200027      -5.65985729E-08
   72.2399979      -3.65725356E-07
   72.3600006      -6.24553024E-07
   72.4800034      -8.36842162E-07
   72.5999985      -1.00830323E-06
   72.7200012      -1.14545776E-06