  -30.0000000       0.00000000    
  -29.8799992       0.00000000    
  -29.7600002       0.00000000    
  -29.6399994       0.00000000    
  -29.5200005      -3.76949287E-43
  -29.3999996       3.67420457E-42
  -29.2800007      -6.14749636E-41
  -29.1599998      -5.07805340E-40
  -29.0400009      -1.02684629E-39
  -28.9200001       2.36104358E-39
  -28.7999992       1.78431874E-38
  -28.6800003       4.20111830E-38
  -28.5599995       2.31115707E-38
  -28.4400005      -1.51394448E-37
  -28.3199997      -5.39413230E-37
  -28.2000008      -8.49011987E-37
  -28.0799999      -1.82609727E-37
  -27.9599991       2.59377951E-36
  -27.8400002       7.30693430E-36
  -27.7199993       1.02302260E-35
  -27.6000004       3.46838993E-36
  -27.4799995      -2.05952881E-35
  -27.3600006      -5.85911154E-35
  -27.2399998      -8.46944369E-35
  -27.1200008      -5.16680219E-35
  -27.0000000       8.18828644E-35
  -26.8799992       2.99494402E-34
  -26.7600002       4.80489056E-34
  -26.6399994       4.13601315E-34
  -26.5200005      -8.64139762E-35
  -26.3999996      -9.81406366E-34
  -26.2800007      -1.85174486E-33
  -26.1599998      -1.95763615E-33
  -26.0400009      -6.35514904E-34
  -25.9200001       2.07516556E-33
  -25.7999992       4.96392346E-33
  -25.6800003       5.86451487E-33
  -25.5599995       2.84180333E-33
  -25.4400005      -4.00933903E-33
  -25.3199997      -1.12815594E-32
  -25.2000008      -1.29311417E-32
  -25.0799999      -3.66297117E-33
  -24.9599991       1.59795233E-32
  -24.8400002       3.58717500E-32
  -24.7199993       3.78571864E-32
  -24.6000004       4.88544526E-33
  -24.4799995      -6.43751841E-32
  -24.3600006      -1.43019976E-31
  -24.2399998      -1.76138142E-31
  -24.1200008      -1.01646536E-31
  -24.0000000       1.10287548E-31
  -23.8799992       4.15113558E-31
  -23.7600002       6.75557262E-31
  -23.6399994       6.92438489E-31
  -23.5200005       2.92259375E-31
  -23.3999996      -5.51832438E-31
  -23.2800007      -1.62055043E-30
  -23.1599998      -2.43893768E-30
  -23.0400009      -2.40605394E-30
  -22.9200001      -1.05864288E-30
  -22.7999992       1.61046845E-30
  -22.6800003       4.92073596E-30
  -22.5599995       7.51556846E-30
  -22.4400005       7.71786934E-30
  -22.3199997       4.20516271E-30
  -22.2000008      -3.18027871E-30
  -22.0799999      -1.28076403E-29
  -21.9599991      -2.11877346E-29
  -21.8400002      -2.37287028E-29
  -21.7199993      -1.63380474E-29
  -21.6000004       2.46967319E-30
  -21.4799995       2.96669978E-29
  -21.3600006       5.69388910E-29
  -21.2399998       7.18901801E-29
  -21.1200008       6.16087776E-29
  -21.0000000       1.81102400E-29
  -20.8799992      -5.58300730E-29
  -20.7600002      -1.42779888E-28
  -20.6399994      -2.11212668E-28
  -20.5200005      -2.22282384E-28
  -20.3999996      -1.42740900E-28
  -20.2800007       3.86133847E-29
  -20.1599998       2.96081083E-28
  -20.0400009       5.60417688E-28
  -19.9200001       7.26534442E-28
  -19.7999992       6.78697712E-28
  -19.6800003       3.31082452E-28
  -19.5599995      -3.25026534E-28
  -19.4400005      -1.18212030E-27
  -19.3199997      -2.00342243E-27
  -19.2000008      -2.45221881E-27
  -19.0799999      -2.17183788E-27
  -18.9599991      -9.10214425E-28
  -18.8400002       1.33566583E-27
  -18.7199993       4.19867211E-27
  -18.6000004       6.89903697E-27
  -18.4799995       8.33383552E-27
  -18.3600006       7.32987058E-27
  -18.2399998       3.04705748E-27
  -18.1200008      -4.54233043E-27
  -18.0000000      -1.42387406E-26
  -17.8799992      -2.34515913E-26
  -17.7600002      -2.84741501E-26
  -17.6399994      -2.53148623E-26
  -17.5200005      -1.10531045E-26
  -17.3999996       1.45267935E-26
  -17.2800007       4.74991270E-26
  -17.1599998       7.91986951E-26
  -17.0400009       9.71056035E-26
  -16.9200001       8.76186267E-26
  -16.7999992       4.06108182E-26
  -16.6800003      -4.50621446E-26
  -16.5599995      -1.56693340E-25
  -16.4400005      -2.65623617E-25
  -16.3199997      -3.30034110E-25
  -16.2000008      -3.03968864E-25
  -16.0799999      -1.52269765E-25
  -15.9600000       1.31209238E-25
  -15.8400002       5.07187617E-25
  -15.7200003       8.83177214E-25
  -15.6000004       1.12129379E-24
  -15.4799995       1.06631413E-24
  -15.3599997       5.93581198E-25
  -15.2399998      -3.30932327E-25
  -15.1199999      -1.59411730E-24
  -15.0000000      -2.90475881E-24
  -14.8800001      -3.81153687E-24
  -14.7600002      -3.78724074E-24
  -14.6400003      -2.38111866E-24
  -14.5200005       5.82115352E-25
  -14.3999996       4.80512927E-24
  -14.2799997       9.39391895E-24
  -14.1599998       1.28863269E-23
  -14.0400000       1.34965029E-23
  -13.9200001       9.59224016E-24
  -13.8000002       3.47804755E-25
  -13.6800003      -1.35744345E-23
  -13.5600004      -2.95396760E-23
  -13.4399996      -4.29171918E-23
  -13.3199997      -4.77439540E-23
  -13.1999998      -3.81686215E-23
  -13.0799999      -1.05424058E-23
  -12.9600000       3.42621729E-23
  -12.8400002       8.89964474E-23
  -12.7200003       1.39499121E-22
  -12.6000004       1.66278588E-22
  -12.4799995       1.48664776E-22
  -12.3599997       7.13179168E-23
  -12.2399998      -6.80142493E-23
  -12.1199999      -2.51534244E-22
  -12.0000000      -4.37948009E-22
  -11.8800001      -5.65331248E-22
  -11.7600002      -5.62280414E-22
  -11.6400003      -3.67461305E-22
  -11.5200005       4.50842685E-23
  -11.3999996       6.40642650E-22
  -11.2799997       1.30695607E-21
  -11.1599998       1.85525080E-21
  -11.0400000       2.04706886E-21
  -10.9200001       1.64991028E-21
  -10.8000002       5.16615036E-22
  -10.6800003      -1.32665089E-21
  -10.5600004      -3.60860046E-21
  -10.4399996      -5.78794107E-21
  -10.3199997      -7.10477707E-21
  -10.1999998      -6.72625550E-21
  -10.0799999      -3.98217147E-21
  -9.96000004       1.34449333E-21
  -9.84000015       8.74027954E-21
  -9.72000027       1.67915726E-20
  -9.60000038       2.32246757E-20
  -9.47999954       2.52368621E-20
  -9.35999966       2.01438383E-20
  -9.23999977       6.28104089E-21
  -9.11999989      -1.60109984E-20
  -9.00000000      -4.35878332E-20
  -8.88000011      -7.02203897E-20
  -8.76000023      -8.71485246E-20
  -8.64000034      -8.46653672E-20
  -8.52000046      -5.46971888E-20
  -8.39999962       5.97771117E-21
  -8.27999973       9.25775307E-20
  -8.15999985       1.90224722E-19
  -8.03999996       2.74010247E-19
  -7.92000008       3.12131512E-19
  -7.80000019       2.72486399E-19
  -7.67999983       1.32231697E-19
  -7.55999994      -1.11284498E-19
  -7.44000006      -4.30892004E-19
  -7.32000017      -7.64693786E-19
  -7.19999981      -1.01936197E-18
  -7.07999992      -1.08415347E-18
  -6.96000004      -8.56072532E-19
  -6.84000015      -2.73524459E-19
  -6.71999979       6.47789333E-19
  -6.59999990       1.78624566E-18
  -6.48000002       2.90430868E-18
  -6.36000013       3.66788014E-18
  -6.23999977       3.70169693E-18
  -6.11999989       2.67989768E-18
  -6.00000000       4.40482258E-19
  -5.88000011      -2.89908545E-18
  -5.76000023      -6.85752291E-18
  -5.63999987      -1.05734188E-17
  -5.51999998      -1.28895717E-17
  -5.40000010      -1.25555404E-17
  -5.28000021      -8.53995161E-18
  -5.15999985      -4.10116949E-19
  -5.03999996       1.12992963E-17
  -4.92000008       2.48350987E-17
  -4.80000019       3.72086784E-17
  -4.67999983       4.45123920E-17
  -4.55999994       4.26163981E-17
  -4.44000006       2.82084405E-17
  -4.32000017       3.09604979E-20
  -4.19999981      -3.99406177E-17
  -4.07999992      -8.57199791E-17
  -3.96000004      -1.27300860E-16
  -3.83999991      -1.51724790E-16
  -3.72000003      -1.45366921E-16
  -3.59999990      -9.73127698E-17
  -3.48000002      -3.35938230E-18
  -3.35999990       1.30173453E-16
  -3.24000001       2.83904109E-16
  -3.11999989       4.25289605E-16
  -3.00000000       5.11947719E-16
  -2.88000011       4.98865825E-16
  -2.75999999       3.49129670E-16
  -2.64000010       4.67531813E-17
  -2.51999998      -3.90895091E-16
  -2.40000010      -9.04422923E-16
  -2.27999997      -1.39116681E-15
  -2.16000009      -1.71453413E-15
  -2.03999996      -1.72561332E-15
  -1.91999996      -1.29628207E-15
  -1.79999995      -3.59864118E-16
  -1.67999995       1.04797150E-15
  -1.55999994       2.75817496E-15
  -1.44000006       4.45859339E-15
  -1.32000005       5.71605319E-15
  -1.20000005       6.03687793E-15
  -1.08000004       4.96556972E-15
 -0.959999979       2.21205216E-15
 -0.839999974      -2.21263577E-15
 -0.720000029      -7.88178980E-15
 -0.600000024      -1.38951935E-14
 -0.479999989      -1.89131886E-14
 -0.360000014      -2.13091619E-14
 -0.239999995      -1.94487354E-14
 -0.119999997      -1.20772685E-14
  -1.11022302E-15   1.23476715E-15
  0.119999997       1.96709578E-14
  0.239999995       4.08795143E-14
  0.360000014       6.09308949E-14
  0.479999989       7.46237992E-14
  0.600000024       7.61985622E-14
  0.720000029       6.04462769E-14
  0.839999974       2.41092208E-14
  0.959999979      -3.26339433E-14
   1.08000004      -1.04897360E-13
   1.20000005      -1.82389788E-13
   1.32000005      -2.49649964E-13
   1.44000006      -2.87502173E-13
   1.55999994      -2.75857489E-13
   1.67999995      -1.97744016E-13
   1.79999995      -4.41475165E-14
   1.91999996       1.81071372E-13
   2.03999996       4.57188540E-13
   2.16000009       7.44716897E-13
   2.27999997       9.86727518E-13
   2.40000010       1.11425300E-12
   2.51999998       1.05610377E-12
   2.64000010       7.52648215E-13
   2.75999999       1.72167741E-13
   2.88000011      -6.72583842E-13
   3.00000000      -1.71081606E-12
   3.11999989      -2.80681598E-12
   3.24000001      -3.76334641E-12
   3.35999990      -4.33815093E-12
   3.48000002      -4.27482745E-12
   3.59999990      -3.34701819E-12
   3.72000003      -1.41207196E-12
   3.83999991       1.53269270E-12
   3.96000004       5.30064360E-12
   4.07999992       9.48472030E-12
   4.19999981       1.34561442E-11
   4.32000017       1.64028704E-11
   4.44000006       1.74137493E-11
   4.55999994       1.56081606E-11
   4.67999983       1.03028740E-11
   4.80000019       1.19886967E-12
   4.92000008      -1.14378342E-11
   5.03999996      -2.66342001E-11
   5.15999985      -4.26432258E-11
   5.28000021      -5.69865023E-11
   5.40000010      -6.66328936E-11
   5.51999998      -6.83253662E-11
   5.63999987      -5.90476903E-11
   5.76000023      -3.65972946E-11
   5.88000011      -2.04280711E-13
   6.00000000       4.88882233E-11
   6.11999989       1.06985434E-10
   6.23999977       1.67754310E-10
   6.36000013       2.22391813E-10
   6.48000002       2.60225508E-10
   6.59999990       2.69780559E-10
   6.71999979       2.40286707E-10
   6.84000015       1.63525887E-10
   6.96000004       3.58448549E-11
   7.07999992      -1.39916204E-10
   7.19999981      -3.52882640E-10
   7.32000017      -5.83322168E-10
   7.44000006      -8.02857614E-10
   7.55999994      -9.75971859E-10
   7.67999983      -1.06295095E-09
   7.80000019      -1.02425091E-09
   7.92000008      -8.26073543E-10
   8.03999996      -4.46721021E-10
   8.15999985       1.16921348E-10
   8.27999973       8.43608572E-10
   8.39999962       1.68361747E-09
   8.52000046       2.55726684E-09
   8.64000034       3.35696382E-09
   8.76000023       3.95343269E-09
   8.88000011       4.20642321E-09
   9.00000000       3.97970235E-09
   9.11999989       3.15956328E-09
   9.23999977       1.67546277E-09
   9.35999966      -4.79195572E-10
   9.47999954      -3.22861005E-09
   9.60000038      -6.40125863E-09
   9.72000027      -9.72457137E-09
   9.84000015      -1.28302169E-08
   9.96000004      -1.52720077E-08
   10.0799999      -1.65574860E-08
   10.1999998      -1.61929545E-08
   10.3199997      -1.37401273E-08
   10.4399996      -8.88094931E-09
   10.5600004      -1.48539725E-09
   10.6800003       8.32439717E-09
   10.8000002       2.01214352E-08
   10.9200001       3.31408323E-08
   11.0400000       4.62745113E-08
   11.1599998       5.81005892E-08
   11.2799997       6.69523388E-08
   11.3999996       7.10288290E-08
   11.5200005       6.85455035E-08
   11.6400003       5.79189425E-08
   11.7600002       3.79753651E-08
   11.8800001       8.16809642E-09
   12.0000000      -3.12145580E-08
   12.1199999      -7.88724890E-08
   12.2399998      -1.32371042E-07
   12.3599997      -1.88094830E-07
   12.4799995      -2.41298750E-07
   12.6000004      -2.86271700E-07
   12.7200003      -3.16622760E-07
   12.8400002      -3.25690678E-07
   12.9600000      -3.07068206E-07
   13.0799999      -2.55221494E-07
   13.1999998      -1.66175212E-07
   13.3199997      -3.82239449E-08
   13.4399996       1.27378769E-07
   13.5600004       3.25806468E-07
   13.6800003       5.48176729E-07
   13.8000002       7.81254130E-07
   13.9200001       1.00738714E-06
   14.0400000       1.20471884E-06
   14.1599998       1.34769800E-06
   14.2799997       1.40789768E-06
   14.3999996       1.35513267E-06
   14.5200005       1.15884643E-06
   14.6400003       7.89713170E-07
   14.7600002       2.21389811E-07
   14.8800001      -5.67670213E-07
   15.0000000      -1.59243780E-06
   15.1199999      -2.85966735E-06
   15.2399998      -4.36649771E-06
   15.3599997      -6.09939525E-06
   15.4799995      -8.03352305E-06
   15.6000004      -1.01326023E-05
   15.7200003      -1.23493201E-05
   15.8400002      -1.46262892E-05
   15.9600000      -1.68975548E-05
   16.0799999      -1.90906103E-05
   16.2000008      -2.11288498E-05
   16.3199997      -2.29343514E-05
   16.4400005      -2.44308994E-05
   16.5599995      -2.55471023E-05
   16.6800003      -2.62194299E-05
   16.7999992      -2.63951042E-05
   16.9200001      -2.60346387E-05
   17.0400009      -2.51139318E-05
   17.1599998      -2.36258074E-05
   17.2800007      -2.15809432E-05
   17.3999996      -1.90080773E-05
   17.5200005      -1.59535521E-05
   17.6399994      -1.24801318E-05
   17.7600002      -8.66519258E-06
   17.8799992      -4.59831699E-06
   18.0000000      -3.78405588E-07
   18.1200008       3.88958642E-06
   18.2399998       8.09815992E-06
   18.3600006       1.21408921E-05
   18.4799995       1.59160136E-05
   18.6000004       1.93298329E-05
   18.7199993       2.22998315E-05
   18.8400002       2.47573789E-05
   18.9599991       2.66498937E-05
   19.0799999       2.79424457E-05
   19.2000008       2.86186914E-05
   19.3199997       2.86811519E-05
   19.4400005       2.81508001E-05
   19.5599995       2.70660148E-05
   19.6800003       2.54809347E-05
   19.7999992       2.34632735E-05
   19.9200001       2.10917133E-05
   20.0400009       1.84529508E-05
   20.1599998       1.56385340E-05
   20.2800007       1.27416079E-05
   20.3999996       9.85367024E-06
   20.5200005       7.06149240E-06
   20.6399994       4.44428679E-06
   20.7600002       2.07122912E-06
   20.8799992      -5.86811433E-10
   21.0000000      -1.72768910E-06
   21.1200008      -3.08122708E-06
   21.2399998      -4.04740013E-06
   21.3600006      -4.62731805E-06
   21.4799995      -4.83630947E-06
   21.6000004      -4.70271516E-06
   21.7199993      -4.26622728E-06
   21.8400002      -3.57584281E-06
   21.9599991      -2.68752319E-06
   22.0799999      -1.66165250E-06
   22.2000008      -5.60405454E-07
   22.3199997       5.54873395E-07
   22.4400005       1.62616925E-06
   22.5599995       2.60107709E-06
   22.6800003       3.43477063E-06
   22.7999992       4.09158292E-06
   22.9200001       4.54614292E-06
   23.0400009       4.78402717E-06
   23.1599998       4.80191466E-06
   23.2800007       4.60724641E-06
   23.3999996       4.21742197E-06
   23.5200005       3.65858841E-06
   23.6399994       2.96407688E-06
   23.7600002       2.17257889E-06
   23.8799992       1.32614787E-06
   24.0000000       4.68118998E-07
   24.1200008      -3.58954935E-07
   24.2399998      -1.11526469E-06
   24.3600006      -1.76551953E-06
   24.4799995      -2.28046792E-06
   24.6000004      -2.63810557E-06
   24.7199993      -2.82452947E-06
   24.8400002      -2.83441295E-06
   24.9599991      -2.67108908E-06
   25.0799999      -2.34624713E-06
   25.2000008      -1.87926150E-06
   25.3199997      -1.29618479E-06
   25.4400005      -6.28450778E-07
   25.5599995       8.86578064E-08
   25.6800003       8.17709918E-07
   25.7999992       1.52092264E-06
   25.9200001       2.16197486E-06
   26.0400009       2.70775718E-06
   26.1599998       3.12997531E-06
   26.2800007       3.40653560E-06
   26.3999996       3.52263964E-06
   26.5200005       3.47152877E-06
   26.6399994       3.25484325E-06
   26.7600002       2.88256615E-06
   26.8799992       2.37254653E-06
   27.0000000       1.74962520E-06
   27.1200008       1.04439482E-06
   27.2399998       2.91657301E-07
   27.3600006      -4.71345885E-07
   27.4799995      -1.20684172E-06
   27.6000004      -1.87847104E-06
   27.7199993      -2.45317074E-06
   27.8400002      -2.90288995E-06
   27.9599991      -3.20605113E-06
   28.0799999      -3.34867445E-06
   28.2000008      -3.32510808E-06
   28.3199997      -3.13832084E-06
   28.4400005      -2.79974461E-06
   28.5599995      -2.32867455E-06
   28.6800003      -1.75125729E-06
   28.7999992      -1.09911934E-06
   28.9200001      -4.07712633E-07
   29.0400009       2.85540125E-07
   29.1599998       9.43200519E-07
   29.2800007       1.52976679E-06
   29.3999996       2.01352168E-06
   29.5200005       2.36817573E-06
   29.6399994       2.57421971E-06
   29.7600002       2.61991340E-06
   29.8799992       2.50185553E-06
   30.0000000       2.22510425E-06
   30.1200008       1.80284007E-06
   30.2399998       1.25558995E-06
   30.3600006       6.10055906E-07
   30.4799995      -1.02384298E-07
   30.6000004      -8.47419017E-07
   30.7199993      -1.58968271E-06
   30.8400002      -2.29466423E-06
   30.9599991      -2.93052926E-06
   31.0799999      -3.46974844E-06
   31.2000008      -3.89043726E-06
   31.3199997      -4.17732917E-06
   31.4400005      -4.32233401E-06
   31.5599995      -4.32465595E-06
   31.6800003      -4.19047865E-06
   31.7999992      -3.93225218E-06
   31.9200001      -3.56764690E-06
   32.0400009      -3.11825124E-06
   32.1599998      -2.60811294E-06
   32.2799988      -2.06222762E-06
   32.4000015      -1.50507685E-06
   32.5200005      -9.59313070E-07
   32.6399994      -4.44666597E-07
   32.7599983       2.28609309E-08
   32.8800011       4.31485233E-07
   33.0000000       7.73797865E-07
   33.1199989       1.04661081E-06
   33.2400017       1.25052611E-06
   33.3600006       1.38928624E-06
   33.4799995       1.46897730E-06
   33.5999985       1.49716232E-06
   33.7200012       1.48202480E-06
   33.8400002       1.43159423E-06
   33.9599991       1.35311507E-06
   34.0800018       1.25260306E-06
   34.2000008       1.13461283E-06
   34.3199997       1.00221610E-06
   34.4399986       8.57174541E-07
   34.5600014       7.00265275E-07
   34.6800003       5.31709190E-07
   34.7999992       3.51640949E-07
   34.9199982       1.60558727E-07
   35.0400009      -4.03022931E-08
   35.1599998      -2.48716987E-07
   35.2799988      -4.61366710E-07
   35.4000015      -6.73893680E-07
   35.5200005      -8.81102949E-07
   35.6399994      -1.07728272E-06
   35.7599983      -1.25659960E-06
   35.8800011      -1.41351734E-06
   36.0000000      -1.54318423E-06
   36.1199989      -1.64174344E-06
   36.2400017      -1.70652481E-06
   36.3600006      -1.73610397E-06
   36.4799995      -1.73022113E-06
   36.5999985      -1.68958377E-06
   36.7200012      -1.61558160E-06
   36.8400002      -1.50996652E-06
   36.9599991      -1.37454583E-06
   37.0800018      -1.21093933E-06
   37.2000008      -1.02044476E-06
   37.3199997      -8.04036347E-07
   37.4399986      -5.62505875E-07
   37.5600014      -2.96734214E-07
   37.6800003      -8.06079559E-09
   37.7999992       3.01296808E-07
   37.9199982       6.27832094E-07
   38.0400009       9.66410425E-07
   38.1599998       1.31005925E-06
   38.2799988       1.64993457E-06
   38.4000015       1.97549139E-06
   38.5200005       2.27486635E-06
   38.6399994       2.53545159E-06
   38.7599983       2.74462627E-06
   38.8800011       2.89058130E-06
   39.0000000       2.96316944E-06
   39.1199989       2.95470454E-06
   39.2400017       2.86063937E-06
   39.3600006       2.68005215E-06
   39.4799995       2.41590601E-06
   39.5999985       2.07504536E-06
   39.7200012       1.66793836E-06
   39.8400002       1.20817708E-06
   39.9599991       7.11782207E-07
   40.0800018       1.96365434E-07
   40.2000008      -3.19786437E-07
   40.3199997      -8.18636693E-07
   40.4399986      -1.28327110E-06
   40.5600014      -1.69866257E-06
   40.6800003      -2.05228775E-06
   40.7999992      -2.33456876E-06
   40.9199982      -2.53913208E-06
   41.0400009      -2.66288771E-06
   41.1599998      -2.70594865E-06
   41.2799988      -2.67141422E-06
   41.4000015      -2.56504836E-06
   41.5200005      -2.39488577E-06
   41.6399994      -2.17078787E-06
   41.7599983      -1.90397668E-06
   41.8800011      -1.60655816E-06
   42.0000000      -1.29104410E-06
   42.1199989      -9.69877192E-07
   42.2400017      -6.54961980E-07
   42.3600006      -3.57203049E-07
   42.4799995      -8.60569926E-08
   42.5999985       1.50888667E-07
   42.7200012       3.48291110E-07
   42.8400002       5.03355977E-07
   42.9599991       6.16038335E-07
   43.0800018       6.89107594E-07
   43.2000008       7.28045904E-07
   43.3199997       7.40757514E-07
   43.4399986       7.37077414E-07
   43.5600014       7.28088082E-07
   43.6800003       7.25268194E-07
   43.7999992       7.39522875E-07
   43.9199982       7.80159496E-07
   44.0400009       8.53892743E-07
   44.1599998       9.63967864E-07
   44.2799988       1.10949452E-06
   44.4000015       1.28507338E-06
   44.5200005       1.48078300E-06
   44.6399994       1.68256520E-06
   44.7599983       1.87301714E-06
   44.8800011       2.03256036E-06
   45.0000000       2.14091961E-06
   45.1199989       2.17880620E-06
   45.2400017       2.12967848E-06
   45.3600006       1.98142402E-06
   45.4799995       1.72781290E-06
   45.5999985       1.36956908E-06
   45.7200012       9.14944223E-07
   45.8400002       3.79703749E-07
   45.9599991      -2.13507690E-07
   46.0800018      -8.36402421E-07
   46.2000008      -1.45681156E-06
   46.3199997      -2.04084540E-06
   46.4399986      -2.55528039E-06
   46.5600014      -2.96997950E-06
   46.6800003      -3.26013583E-06
   46.7999992      -3.40814813E-06
   46.9199982      -3.40496422E-06
   47.0400009      -3.25076689E-06
   47.1599998      -2.95495329E-06
   47.2799988      -2.53540452E-06
   47.4000015      -2.01712032E-06
   47.5200005      -1.43034129E-06
   47.6399994      -8.08328423E-07
   47.7599983      -1.84996196E-07
   47.8800011       4.07401188E-07
   48.0000000       9.40344819E-07
   48.1199989       1.39073040E-06
   48.2400017       1.74203990E-06
   48.3600006       1.98494581E-06
   48.4799995       2.11734118E-06
   48.5999985       2.14383931E-06
   48.7200012       2.07482685E-06
   48.8400002       1.92518951E-06
   48.9599991       1.71284239E-06
   49.0800018       1.45720037E-06
   49.2000008       1.17771674E-06
   49.3199997       8.92596574E-07
   49.4399986       6.17763476E-07
   49.5600014       3.66125334E-07
   49.6800003       1.47155603E-07
   49.7999992      -3.32258629E-08
   49.9199982      -1.72509104E-07
   50.0400009      -2.71242243E-07
   50.1599998      -3.32533432E-07
   50.2799988      -3.61469603E-07
   50.4000015      -3.64508026E-07
   50.5200005      -3.48886999E-07
   50.6399994      -3.22088255E-07
   50.7599983      -2.91368593E-07
   50.8800011      -2.63367554E-07
   51.0000000      -2.43788264E-07
   51.1199989      -2.37142061E-07
   51.2400017      -2.46549121E-07
   51.3600006      -2.73588739E-07
   51.4799995      -3.18200676E-07
   51.5999985      -3.78644586E-07
   51.7200012      -4.51533026E-07
   51.8400002      -5.31955379E-07
   51.9599991      -6.13710938E-07
   52.0800018      -6.89663011E-07
   52.2000008      -7.52214078E-07
   52.3199997      -7.93887295E-07
   52.4399986      -8.07982190E-07
   52.5600014      -7.89253420E-07
   52.6800003      -7.34549189E-07
   52.7999992      -6.43336818E-07
   52.9199982      -5.18044317E-07
   53.0400009      -3.64155738E-07
   53.1599998      -1.90018184E-07
   53.2799988      -6.34332764E-09
   53.4000015       1.74580521E-07
   53.5200005       3.39917079E-07
   53.6399994       4.77470792E-07
   53.7599983       5.76929779E-07
   53.8800011       6.31038517E-07
   54.0000000       6.36571599E-07
   54.1199989       5.94985863E-07
   54.2400017       5.12649365E-07
   54.3600006       4.00580291E-07
   54.4799995       2.73672498E-07
   54.5999985       1.49437469E-07
   54.7200012       4.63458463E-08
   54.8400002      -1.80953990E-08
   54.9599991      -2.93533926E-08
   55.0800018       2.22369980E-08
   55.2000008       1.39907229E-07
   55.3199997       3.19412408E-07
   55.4399986       5.48668481E-07
   55.5600014       8.08167385E-07
   55.6800003       1.07219171E-06
   55.7999992       1.31076979E-06
   55.9199982       1.49222763E-06
   56.0400009       1.58612136E-06
   56.1599998       1.56628255E-06
   56.2799988       1.41367718E-06
   56.4000015       1.11878308E-06
   56.5200005       6.83227199E-07
   56.6399994       1.20484970E-07
   56.7599983      -5.44468605E-07
   56.8800011      -1.27656244E-06
   57.0000000      -2.03299101E-06
   57.1199989      -2.76633750E-06
   57.2400017      -3.42818726E-06
   57.3600006      -3.97290387E-06
   57.4799995      -4.36123037E-06
   57.5999985      -4.56338876E-06
   57.7200012      -4.56140242E-06
   57.8400002      -4.35044649E-06
   57.9599991      -3.93912705E-06
   58.0800018      -3.34868241E-06
   58.2000008      -2.61121318E-06
   58.3199997      -1.76712172E-06
   58.4399986      -8.62011859E-07
   58.5600014       5.66603191E-08
   58.6800003       9.42894133E-07
   58.7999992       1.75513264E-06
   58.9199982       2.45870638E-06
   59.0400009       3.02756916E-06
   59.1599998       3.44524506E-06
   59.2799988       3.70498196E-06
   59.4000015       3.80918641E-06
   59.5200005       3.76826415E-06
   59.6399994       3.59904448E-06
   59.7599983       3.32296804E-06
   59.8800011       2.96422240E-06
   60.0000000       2.54797965E-06
   60.1199989       2.09884797E-06
   60.2400017       1.63961772E-06
   60.3600006       1.19032279E-06
   60.4799995       7.67614040E-07
   60.5999985       3.84410669E-07
   60.7200012       4.97836972E-08
   60.8400002      -2.30976013E-07
   60.9599991      -4.56145415E-07
   61.0800018      -6.27241434E-07
   61.2000008      -7.48593948E-07
   61.3199997      -8.26825669E-07
   61.4399986      -8.70242104E-07
   61.5600014      -8.88138175E-07
   61.6800003      -8.90035551E-07
   61.7999992      -8.84882468E-07
   61.9199982      -8.80261609E-07
   62.0400009      -8.81669223E-07
   62.1599998      -8.91934349E-07
   62.2799988      -9.10850304E-07
   62.4000015      -9.35078162E-07
   62.5200005      -9.58361852E-07
   62.6399994      -9.72062480E-07
   62.7599983      -9.65988761E-07
   62.8800011      -9.29458110E-07
   63.0000000      -8.52497067E-07
   63.1199989      -7.27065299E-07
   63.2400017      -5.48178662E-07
   63.3600006      -3.14810791E-07
   63.4799995      -3.04719627E-08
   63.5999985       2.96607027E-07
   63.7200012       6.53719837E-07
   63.8400002       1.02434979E-06
   63.9599991       1.38920541E-06
   64.0800018       1.72753789E-06
   64.1999969       2.01862758E-06
   64.3199997       2.24330347E-06
   64.4400024       2.38536563E-06
   64.5599976       2.43278600E-06
   64.6800003       2.37858649E-06
   64.8000031       2.22133690E-06
   64.9199982       1.96524320E-06
   65.0400009       1.61984769E-06
   65.1600037       1.19939045E-06
   65.2799988       7.21913636E-07
   65.4000015       2.08200888E-07
   65.5199966      -3.19353745E-07
   65.6399994      -8.37864889E-07
   65.7600021      -1.32499872E-06
   65.8799973      -1.75989976E-06
   66.0000000      -2.12398595E-06
   66.1200027      -2.40161376E-06
   66.2399979      -2.58062437E-06
   66.3600006      -2.65279505E-06
   66.4800034      -2.61419518E-06
   66.5999985      -2.46545460E-06
   66.7200012      -2.21192568E-06
   66.8399963      -1.86370971E-06
   66.9599991      -1.43550665E-06
   67.0800018      -9.46249600E-07
   67.1999969      -4.18486678E-07
   67.3199997       1.22512461E-07
   67.4400024       6.49918547E-07
   67.5599976       1.13674059E-06
   67.6800003       1.55739144E-06
   67.8000031       1.88932120E-06
   67.9199982       2.11459383E-06
   68.0400009       2.22126710E-06
   68.1600037       2.20443349E-06
   68.2799988       2.06680420E-06
   68.4000015       1.81874088E-06
   68.5199966       1.47769276E-06
   68.6399994       1.06705261E-06
   68.7600021       6.14501459E-07
   68.8799973       1.49969438E-07
   69.0000000      -2.96616520E-07
   69.1200027      -6.97598125E-07
   69.2399979      -1.02965737E-06
   69.3600006      -1.27549924E-06
   69.4800034      -1.42498959E-06
   69.5999985      -1.47563821E-06
   69.7200012      -1.43239060E-06
   69.8399963      -1.30675528E-06
   69.9599991      -1.11536804E-06
   70.0800018      -8.78148057E-07
   70.1999969      -6.16247462E-07
   70.3199997      -3.50008918E-07
   70.4400024      -9.71452963E-08
   70.5599976       1.28679886E-07
   70.6800003       3.18739865E-07
   70.8000031       4.69536104E-07
   70.9199982       5.82498558E-07
   71.0400009       6.63165906E-07
   71.1600037       7.19973627E-07
   71.2799988       7.62811851E-07
   71.4000015       8.01532849E-07
   71.5199966       8.44580370E-07
   71.6399994       8.97890118E-07
   71.7600021       9.64169089E-07
   71.8799973       1.04261187E-06
   72.0000000       1.12906218E-06
   72.1200027       1.21657206E-06
   72.2399979       1.29627608E-06
   72.3600006       1.35845880E-06
   72.4800034       1.39368422E-06
   72.5999985       1.39385293E-06
   72.7200012       1.35306902E-06