  -30.0000000       0.00000000    
  -29.8799992       0.00000000    
  -29.7600002       0.00000000    
  -29.6399994       0.00000000    
  -29.5200005       0.00000000    
  -29.3999996       0.00000000    
  -29.2800007      -1.26116862E-44
  -29.1599998      -3.05483065E-43
  -29.0400009      -2.22526196E-42
  -28.9200001      -9.76004380E-42
  -28.7999992      -2.66765189E-41
  -28.6800003      -4.86488788E-41
  -28.5599995      -9.66405486E-41
  -28.4400005      -3.50418503E-40
  -28.3199997      -1.20801036E-39
  -28.2000008      -2.53153816E-39
  -28.0799999      -1.17497195E-39
  -27.9599991       1.18943040E-38
  -27.8400002       4.80515053E-38
  -27.7199993       1.00083976E-37
  -27.6000004       1.02828873E-37
  -27.4799995      -9.06473352E-38
  -27.3600006      -6.37403722E-37
  -27.2399998      -1.45962468E-36
  -27.1200008      -1.87960015E-36
  -27.0000000      -4.61970168E-37
  -26.8799992       4.36278981E-36
  -26.7600002       1.24708543E-35
  -26.6399994       1.94896762E-35
  -26.5200005       1.55155411E-35
  -26.3999996      -1.17335552E-35
  -26.2800007      -6.70610344E-35
  -26.1599998      -1.33234525E-34
  -26.0400009      -1.60633679E-34
  -25.9200001      -7.55226479E-35
  -25.7999992       1.80925065E-34
  -25.6800003       5.85900410E-34
  -25.5599995       9.69881471E-34
  -25.4400005       1.00752952E-33
  -25.3199997       3.21479292E-34
  -25.2000008      -1.28315797E-33
  -25.0799999      -3.51827480E-33
  -24.9599991      -5.40792164E-33
  -24.8400002      -5.39367428E-33
  -24.7199993      -1.90751270E-33
  -24.6000004       5.63050296E-33
  -24.4799995       1.57335805E-32
  -24.3600006       2.43033810E-32
  -24.2399998       2.52881543E-32
  -24.1200008       1.28956300E-32
  -24.0000000      -1.49896733E-32
  -23.8799992      -5.34143164E-32
  -23.7600002      -8.88635878E-32
  -23.6399994      -1.01480227E-31
  -23.5200005      -7.17373698E-32
  -23.3999996       9.64546526E-33
  -23.2800007       1.31957751E-31
  -23.1599998       2.59768759E-31
  -23.0400009       3.37696276E-31
  -22.9200001       3.06502370E-31
  -22.7999992       1.27830038E-31
  -22.6800003      -1.90030017E-31
  -22.5599995      -5.76201423E-31
  -22.4400005      -9.01583290E-31
  -22.3199997      -1.00902470E-30
  -22.2000008      -7.66037225E-31
  -22.0799999      -1.26631986E-31
  -21.9599991       8.18995126E-31
  -21.8400002       1.83016834E-30
  -21.7199993       2.55383502E-30
  -21.6000004       2.61773790E-30
  -21.4799995       1.76181739E-30
  -21.3600006      -2.82284536E-32
  -21.2399998      -2.43345311E-30
  -21.1200008      -4.80711888E-30
  -21.0000000      -6.30132380E-30
  -20.8799992      -6.10797209E-30
  -20.7600002      -3.76293195E-30
  -20.6399994       5.78198259E-31
  -20.5200005       6.00411707E-30
  -20.3999996       1.09471919E-29
  -20.2800007       1.35556730E-29
  -20.1599998       1.22840845E-29
  -20.0400009       6.54596354E-30
  -19.9200001      -2.79949660E-30
  -19.7999992      -1.33609735E-29
  -19.6800003      -2.16784616E-29
  -19.5599995      -2.42190671E-29
  -19.4400005      -1.86794907E-29
  -19.3199997      -5.19069115E-30
  -19.2000008       1.30541578E-29
  -19.0799999       3.01441379E-29
  -18.9599991       3.89166796E-29
  -18.8400002       3.33341459E-29
  -18.7199993       1.11824300E-29
  -18.6000004      -2.37747325E-29
  -18.4799995      -6.11247914E-29
  -18.3600006      -8.53570406E-29
  -18.2399998      -7.98858347E-29
  -18.1200008      -3.30711482E-29
  -18.0000000       5.50855747E-29
  -17.8799992       1.67666670E-28
  -17.7600002       2.69512759E-28
  -17.6399994       3.12154268E-28
  -17.5200005       2.46160473E-28
  -17.3999996       3.99113411E-29
  -17.2800007      -2.99116228E-28
  -17.1599998      -7.07397535E-28
  -17.0400009      -1.06142901E-27
  -16.9200001      -1.19489326E-27
  -16.7999992      -9.40917119E-28
  -16.6800003      -1.95711232E-28
  -16.5599995       1.01021997E-27
  -16.4400005       2.45681562E-27
  -16.3199997       3.72398777E-27
  -16.2000008       4.25159705E-27
  -16.0799999       3.48105597E-27
  -15.9600000       1.06422854E-27
  -15.8400002      -2.90667144E-27
  -15.7200003      -7.72390815E-27
  -15.6000004      -1.20342241E-26
  -15.4799995      -1.40323872E-26
  -15.3599997      -1.19102797E-26
  -15.2399998      -4.51433203E-27
  -15.1199999       7.93329063E-27
  -15.0000000       2.32828537E-26
  -14.8800001       3.73510601E-26
  -14.7600002       4.45002415E-26
  -14.6400003       3.90022569E-26
  -14.5200005       1.70495414E-26
  -14.3999996      -2.10168276E-26
  -14.2799997      -6.89597736E-26
  -14.1599998      -1.14214610E-25
  -14.0400000      -1.39509435E-25
  -13.9200001      -1.26871661E-25
  -13.8000002      -6.36588872E-26
  -13.6800003       5.06194540E-26
  -13.5600004       1.98740020E-25
  -13.4399996       3.43965048E-25
  -13.3199997       4.34274880E-25
  -13.1999998       4.13778893E-25
  -13.0799999       2.40441402E-25
  -12.9600000      -9.33097836E-26
  -12.8400002      -5.42993028E-25
  -12.7200003      -1.00486660E-24
  -12.6000004      -1.32600911E-24
  -12.4799995      -1.33554743E-24
  -12.3599997      -8.95262168E-25
  -12.2399998       3.95636177E-26
  -12.1199999       1.36545847E-24
  -12.0000000       2.80332175E-24
  -11.8800001       3.91873439E-24
  -11.7600002       4.20279926E-24
  -11.6400003       3.21113069E-24
  -11.5200005       7.38185615E-25
  -11.3999996      -3.01682301E-24
  -11.2799997      -7.35081575E-24
  -11.1599998      -1.10839525E-23
  -11.0400000      -1.27540357E-23
  -10.9200001      -1.09803269E-23
  -10.8000002      -4.94408672E-24
  -10.6800003       5.12533146E-24
  -10.5600004       1.76145036E-23
  -10.4399996       2.95061399E-23
  -10.3199997       3.68018727E-23
  -10.1999998       3.54183369E-23
  -10.0799999       2.24461677E-23
  -9.96000004      -2.49580089E-24
  -9.84000015      -3.62069390E-23
  -9.72000027      -7.15943210E-23
  -9.60000038      -9.84686348E-23
  -9.47999954      -1.05585542E-22
  -9.35999966      -8.37246541E-23
  -9.23999977      -2.91980487E-23
  -9.11999989       5.31609514E-23
  -9.00000000       1.48629472E-22
  -8.88000011       2.33796638E-22
  -8.76000023       2.80779199E-22
  -8.64000034       2.64084984E-22
  -8.52000046       1.68809178E-22
  -8.39999962      -1.97073271E-24
  -8.27999973      -2.23110993E-22
  -8.15999985      -4.48806117E-22
  -8.03999996      -6.20508194E-22
  -7.92000008      -6.80553509E-22
  -7.80000019      -5.88597268E-22
  -7.67999983      -3.36255331E-22
  -7.55999994       4.52264181E-23
  -7.44000006       4.88340140E-22
  -7.32000017       9.04833202E-22
  -7.19999981       1.21019735E-21
  -7.07999992       1.34950387E-21
  -6.96000004       1.31407627E-21
  -6.84000015       1.13893652E-21
  -6.71999979       8.75947514E-22
  -6.59999990       5.46968182E-22
  -6.48000002       9.32592624E-23
  -6.36000013      -6.52178498E-22
  -6.23999977      -1.93867306E-21
  -6.11999989      -3.99541322E-21
  -6.00000000      -6.85177047E-21
  -5.88000011      -1.01151393E-20
  -5.76000023      -1.27822241E-20
  -5.63999987      -1.31931148E-20
  -5.51999998      -9.24565378E-21
  -5.40000010       1.04695812E-21
  -5.28000021       1.86595079E-20
  -5.15999985       4.24588965E-20
  -5.03999996       6.82085443E-20
  -4.92000008       8.81103677E-20
  -4.80000019       9.13762383E-20
  -4.67999983       6.62267100E-20
  -4.55999994       3.43060961E-21
  -4.44000006      -9.89802382E-20
  -4.32000017      -2.30791792E-19
  -4.19999981      -3.66048592E-19
  -4.07999992      -4.62792405E-19
  -3.96000004      -4.67958251E-19
  -3.83999991      -3.28555752E-19
  -3.72000003      -8.79044595E-21
  -3.59999990       4.89313315E-19
  -3.48000002       1.10658413E-18
  -3.35999990       1.71545358E-18
  -3.24000001       2.12438820E-18
  -3.11999989       2.10443950E-18
  -3.00000000       1.44060969E-18
  -2.88000011       4.39107616E-21
  -2.75999999      -2.16440307E-18
  -2.64000010      -4.78686525E-18
  -2.51999998      -7.31186633E-18
  -2.40000010      -8.94830504E-18
  -2.27999997      -8.78381934E-18
  -2.16000009      -5.99513542E-18
  -2.03999996      -1.30617144E-19
  -1.91999996       8.58440512E-18
  -1.79999995       1.89979233E-17
  -1.67999995       2.89346124E-17
  -1.55999994       3.53491730E-17
  -1.44000006       3.47978208E-17
  -1.32000005       2.42352819E-17
  -1.20000005       2.05518276E-18
  -1.08000004      -3.08134539E-17
 -0.959999979      -7.00384545E-17
 -0.839999974      -1.07589483E-16
 -0.720000029      -1.32347442E-16
 -0.600000024      -1.31838706E-16
 -0.479999989      -9.50950589E-17
 -0.360000014      -1.63270018E-17
 -0.239999995       1.01258534E-16
 -0.119999997       2.42485548E-16
  -1.11022302E-15   3.79251511E-16
  0.119999997       4.72688219E-16
  0.239999995       4.79151186E-16
  0.360000014       3.60001523E-16
  0.479999989       9.41084839E-17
  0.600000024      -3.09167820E-16
  0.720000029      -7.99791114E-16
  0.839999974      -1.28352120E-15
  0.959999979      -1.62870481E-15
   1.08000004      -1.68579652E-15
   1.20000005      -1.31963837E-15
   1.32000005      -4.51195605E-16
   1.44000006       8.98384108E-16
   1.55999994       2.57199712E-15
   1.67999995       4.26183653E-15
   1.79999995       5.52808980E-15
   1.91999996       5.85981882E-15
   2.03999996       4.77937536E-15
   2.16000009       1.98098158E-15
   2.27999997      -2.51843076E-15
   2.40000010      -8.24999587E-15
   2.51999998      -1.42272397E-14
   2.64000010      -1.89865264E-14
   2.75999999      -2.07662985E-14
   2.88000011      -1.78358779E-14
   3.00000000      -8.95132814E-15
   3.11999989       6.12472795E-15
   3.24000001       2.61433467E-14
   3.35999990       4.80649456E-14
   3.48000002       6.70762613E-14
   3.59999990       7.70536860E-14
   3.72000003       7.15394608E-14
   3.83999991       4.51996127E-14
   3.96000004      -4.39469662E-15
   4.07999992      -7.49599222E-14
   4.19999981      -1.58086746E-13
   4.32000017      -2.38712397E-13
   4.44000006      -2.95954857E-13
   4.55999994      -3.05655539E-13
   4.67999983      -2.44718254E-13
   4.80000019      -9.69557889E-14
   4.92000008       1.40296791E-13
   5.03999996       4.49998627E-13
   5.15999985       7.91205805E-13
   5.28000021       1.09856709E-12
   5.40000010       1.28705260E-12
   5.51999998       1.26288780E-12
   5.63999987       9.40697498E-13
   5.76000023       2.65523091E-13
   5.88000011      -7.63137763E-13
   6.00000000      -2.06959710E-12
   6.11999989      -3.48796231E-12
   6.23999977      -4.76161992E-12
   6.36000013      -5.56129665E-12
   6.48000002      -5.52481888E-12
   6.59999990      -4.31842756E-12
   6.71999979      -1.71515102E-12
   6.84000015       2.31918369E-12
   6.96000004       7.54649641E-12
   7.07999992       1.34013313E-11
   7.19999981       1.89792331E-11
   7.32000017       2.30859672E-11
   7.44000006       2.43592629E-11
   7.55999994       2.14650745E-11
   7.67999983       1.33572155E-11
   7.80000019      -4.26126202E-13
   7.92000008      -1.94706421E-11
   8.03999996      -4.22532495E-11
   8.15999985      -6.60294389E-11
   8.27999973      -8.68996472E-11
   8.39999962      -1.00100636E-10
   8.52000046      -1.00543282E-10
   8.64000034      -8.35821481E-11
   8.76000023      -4.59585495E-11
   8.88000011       1.31879611E-11
   9.00000000       9.13875087E-11
   9.11999989       1.82165422E-10
   9.23999977       2.74813727E-10
   9.35999966       3.54778984E-10
   9.47999954       4.04787259E-10
   9.60000038       4.06743916E-10
   9.72000027       3.44335171E-10
   9.84000015       2.06129072E-10
   9.96000004      -1.11590225E-11
   10.0799999      -2.99687775E-10
   10.1999998      -6.38327891E-10
   10.3199997      -9.91865257E-10
   10.4399996      -1.31206424E-09
   10.5600004      -1.54093927E-09
   10.6800003      -1.61636093E-09
   10.8000002      -1.47981460E-09
   10.9200001      -1.08578446E-09
   11.0400000      -4.11874757E-10
   11.1599998       5.31544309E-10
   11.2799997       1.69361225E-09
   11.3999996       2.97871239E-09
   11.5200005       4.24711866E-09
   11.6400003       5.32170041E-09
   11.7600002       6.00131678E-09
   11.8800001       6.08081852E-09
   12.0000000       5.37670619E-09
   12.1199999       3.75657505E-09
   12.2399998       1.16955601E-09
   12.3599997      -2.32577801E-09
   12.4799995      -6.54006493E-09
   12.6000004      -1.11425029E-08
   12.7200003      -1.56646891E-08
   12.8400002      -1.95218472E-08
   12.9600000      -2.20530243E-08
   13.0799999      -2.25799361E-08
   13.1999998      -2.04820108E-08
   13.3199997      -1.52828683E-08
   13.4399996      -6.74115164E-09
   13.5600004       5.06329600E-09
   13.6800003       1.96583088E-08
   13.8000002       3.61342778E-08
   13.9200001       5.31355084E-08
   14.0400000       6.88969308E-08
   14.1599998       8.13321748E-08
   14.2799997       8.81750353E-08
   14.3999996       8.71715287E-08
   14.5200005       7.63141301E-08
   14.6400003       5.41041274E-08
   14.7600002       1.98224974E-08
   14.8800001      -2.62147850E-08
   15.0000000      -8.24443234E-08
   15.1199999      -1.45914356E-07
   15.2399998      -2.12242782E-07
   15.3599997      -2.75698113E-07
   15.4799995      -3.29420772E-07
   15.6000004      -3.65793596E-07
   15.7200003      -3.76959463E-07
   15.8400002      -3.55471144E-07
   15.9600000      -2.95045908E-07
   16.0799999      -1.91384387E-07
   16.2000008      -4.30018368E-08
   16.3199997       1.47988857E-07
   16.4400005       3.75208288E-07
   16.5599995       6.27522923E-07
   16.6800003       8.88801310E-07
   16.7999992       1.13796796E-06
   16.9200001       1.34939432E-06
   17.0400009       1.49364769E-06
   17.1599998       1.53859708E-06
   17.2800007       1.45084823E-06
   17.3999996       1.19746051E-06
   17.5200005       7.47867148E-07
   17.6399994       7.59065060E-08
   17.7600002      -8.38147855E-07
   17.8799992      -2.00568047E-06
   18.0000000      -3.42807289E-06
   18.1200008      -5.09540632E-06
   18.2399998      -6.98563599E-06
   18.3600006      -9.06431433E-06
   18.4799995      -1.12849275E-05
   18.6000004      -1.35898608E-05
   18.7199993      -1.59119918E-05
   18.8400002      -1.81768410E-05
   18.9599991      -2.03052332E-05
   19.0799999      -2.22163253E-05
   19.2000008      -2.38308767E-05
   19.3199997      -2.50745870E-05
   19.4400005      -2.58813798E-05
   19.5599995      -2.61964269E-05
   19.6800003      -2.59787776E-05
   19.7999992      -2.52034642E-05
   19.9200001      -2.38629600E-05
   20.0400009      -2.19679441E-05
   20.1599998      -1.95473112E-05
   20.2800007      -1.66474201E-05
   20.3999996      -1.33306557E-05
   20.5200005      -9.67333744E-06
   20.6399994      -5.76308867E-06
   20.7600002      -1.69579505E-06
   20.8799992       2.42771671E-06
   21.0000000       6.50513039E-06
   21.1200008       1.04360770E-05
   21.2399998       1.41254168E-05
   21.3600006       1.74862471E-05
   21.4799995       2.04425305E-05
   21.6000004       2.29312554E-05
   21.7199993       2.49040822E-05
   21.8400002       2.63284328E-05
   21.9599991       2.71880326E-05
   22.0799999       2.74828817E-05
   22.2000008       2.72287307E-05
   22.3199997       2.64560895E-05
   22.4400005       2.52088066E-05
   22.5599995       2.35423213E-05
   22.6800003       2.15216296E-05
   22.7999992       1.92190491E-05
   22.9200001       1.67118415E-05
   23.0400009       1.40797792E-05
   23.1599998       1.14027061E-05
   23.2800007       8.75816750E-06
   23.3999996       6.21915797E-06
   23.5200005       3.85204476E-06
   23.6399994       1.71473323E-06
   23.7600002      -1.44893221E-07
   23.8799992      -1.69020223E-06
   24.0000000      -2.89668151E-06
   24.1200008      -3.75241166E-06
   24.2399998      -4.25812505E-06
   24.3600006      -4.42684177E-06
   24.4799995      -4.28308567E-06
   24.6000004      -3.86169586E-06
   24.7199993      -3.20627487E-06
   24.8400002      -2.36731125E-06
   24.9599991      -1.40004840E-06
   25.0799999      -3.62176195E-07
   25.2000008       6.88566786E-07
   25.3199997       1.69678390E-06
   25.4400005       2.61170135E-06
   25.5599995       3.38924019E-06
   25.6800003       3.99378496E-06
   25.7999992       4.39956830E-06
   25.9200001       4.59159946E-06
   26.0400009       4.56609359E-06
   26.1599998       4.33037621E-06
   26.2800007       3.90226114E-06
   26.3999996       3.30892908E-06
   26.5200005       2.58536238E-06
   26.6399994       1.77241134E-06
   26.7600002       9.14587758E-07
   26.8799992       5.77013957E-08
   27.0000000      -7.53541201E-07
   27.1200008      -1.47784783E-06
   27.2399998      -2.07944254E-06
   27.3600006      -2.52984637E-06
   27.4799995      -2.80924542E-06
   27.6000004      -2.90737512E-06
   27.7199993      -2.82387623E-06
   27.8400002      -2.56811200E-06
   27.9599991      -2.15846057E-06
   28.0799999      -1.62112985E-06
   28.2000008      -9.88567308E-07
   28.3199997      -2.97562593E-07
   28.4400005       4.12845850E-07
   28.5599995       1.10353938E-06
   28.6800003       1.73743672E-06
   28.7999992       2.28144427E-06
   28.9200001       2.70813302E-06
   29.0400009       2.99705152E-06
   29.1599998       3.13561713E-06
   29.2800007       3.11954341E-06
   29.3999996       2.95279847E-06
   29.5200005       2.64711184E-06
   29.6399994       2.22107883E-06
   29.7600002       1.69892292E-06
   29.8799992       1.10901215E-06
   30.0000000       4.82212272E-07
   30.1200008      -1.49813857E-07
   30.2399998      -7.56269628E-07
   30.3600006      -1.30875799E-06
   30.4799995      -1.78261030E-06
   30.6000004      -2.15795194E-06
   30.7199993      -2.42046485E-06
   30.8400002      -2.56182921E-06
   30.9599991      -2.57984175E-06
   31.0799999      -2.47823596E-06
   31.2000008      -2.26622888E-06
   31.3199997      -1.95784492E-06
   31.4400005      -1.57106751E-06
   31.5599995      -1.12686871E-06
   31.6800003      -6.48175671E-07
   31.7999992      -1.58816832E-07
   31.9200001       3.17501559E-07
   32.0400009       7.58157569E-07
   32.1599998       1.14248348E-06
   32.2799988       1.45252272E-06
   32.4000015       1.67365795E-06
   32.5200005       1.79510380E-06
   32.6399994       1.81025416E-06
   32.7599983       1.71688316E-06
   32.8800011       1.51719871E-06
   33.0000000       1.21774372E-06
   33.1199989       8.29150224E-07
   33.2400017       3.65747240E-07
   33.3600006      -1.54971801E-07
   33.4799995      -7.13011104E-07
   33.5999985      -1.28664726E-06
   33.7200012      -1.85329316E-06
   33.8400002      -2.39042356E-06
   33.9599991      -2.87652233E-06
   34.0800018      -3.29201316E-06
   34.2000008      -3.62012656E-06
   34.3199997      -3.84765872E-06
   34.4399986      -3.96557698E-06
   34.5600014      -3.96943460E-06
   34.6800003      -3.85956628E-06
   34.7999992      -3.64104903E-06
   34.9199982      -3.32341892E-06
   35.0400009      -2.92016580E-06
   35.1599998      -2.44802345E-06
   35.2799988      -1.92610696E-06
   35.4000015      -1.37493805E-06
   35.5200005      -8.15428564E-07
   35.6399994      -2.67878136E-07
   35.7599983       2.48950869E-07
   35.8800011       7.18626438E-07
   36.0000000       1.12766554E-06
   36.1199989       1.46594698E-06
   36.2400017       1.72690670E-06
   36.3600006       1.90751734E-06
   36.4799995       2.00807153E-06
   36.5999985       2.03180252E-06
   36.7200012       1.98438283E-06
   36.8400002       1.87335297E-06
   36.9599991       1.70752799E-06
   37.0800018       1.49642619E-06
   37.2000008       1.24976452E-06
   37.3199997       9.77042532E-07
   37.4399986       6.87236877E-07
   37.5600014       3.88605855E-07
   37.6800003       8.85982914E-08
   37.7999992      -2.06152450E-07
   37.9199982      -4.89772788E-07
   38.0400009      -7.57059126E-07
   38.1599998      -1.00338116E-06
   38.2799988      -1.22460017E-06
   38.4000015      -1.41701946E-06
   38.5200005      -1.57737531E-06
   38.6399994      -1.70286751E-06
   38.7599983      -1.79122196E-06
   38.8800011      -1.84077555E-06
   39.0000000      -1.85056138E-06
   39.1199989      -1.82038434E-06
   39.2400017      -1.75086609E-06
   39.3600006      -1.64345408E-06
   39.4799995      -1.50038750E-06
   39.5999985      -1.32462333E-06
   39.7200012      -1.11972895E-06
   39.8400002      -8.89756677E-07
   39.9599991      -6.39110965E-07
   40.0800018      -3.72428104E-07
   40.2000008      -9.44779117E-08
   40.3199997       1.89901485E-07
   40.4399986       4.75833588E-07
   40.5600014       7.58401825E-07
   40.6800003       1.03262482E-06
   40.7999992       1.29342413E-06
   40.9199982       1.53560109E-06
   41.0400009       1.75384287E-06
   41.1599998       1.94277141E-06
   41.2799988       2.09704876E-06
   41.4000015       2.21154528E-06
   41.5200005       2.28156455E-06
   41.6399994       2.30311730E-06
   41.7599983       2.27322312E-06
   41.8800011       2.19021649E-06
   42.0000000       2.05402375E-06
   42.1199989       1.86638658E-06
   42.2400017       1.63099787E-06
   42.3600006       1.35353173E-06
   42.4799995       1.04154833E-06
   42.5999985       7.04270633E-07
   42.7200012       3.52238146E-07
   42.8400002      -3.14906434E-09
   42.9599991      -3.50168165E-07
   43.0800018      -6.77362891E-07
   43.2000008      -9.74144314E-07
   43.3199997      -1.23136397E-06
   43.4399986      -1.44181774E-06
   43.5600014      -1.60064621E-06
   43.6800003      -1.70559963E-06
   43.7999992      -1.75714695E-06
   43.9199982      -1.75841649E-06
   44.0400009      -1.71496833E-06
   44.1599998      -1.63440620E-06
   44.2799988      -1.52585039E-06
   44.4000015      -1.39929932E-06
   44.5200005      -1.26491955E-06
   44.6399994      -1.13230556E-06
   44.7599983      -1.00975819E-06
   44.8800011      -9.03632554E-07
   45.0000000      -8.17804619E-07
   45.1199989      -7.53302345E-07
   45.2400017      -7.08139567E-07
   45.3600006      -6.77380740E-07
   45.4799995      -6.53447273E-07
   45.5999985      -6.26664701E-07
   45.7200012      -5.86025067E-07
   45.8400002      -5.20125184E-07
   45.9599991      -4.18219457E-07
   46.0800018      -2.71313610E-07
   46.2000008      -7.32147072E-08
   46.3199997       1.78551574E-07
   46.4399986       4.82043845E-07
   46.5600014       8.30502700E-07
   46.6800003       1.21230289E-06
   46.7999992       1.61129310E-06
   46.9199982       2.00752766E-06
   47.0400009       2.37836389E-06
   47.1599998       2.69986253E-06
   47.2799988       2.94840629E-06
   47.4000015       3.10241694E-06
   47.5200005       3.14404861E-06
   47.6399994       3.06072070E-06
   47.7599983       2.84636394E-06
   47.8800011       2.50226503E-06
   48.0000000       2.03743230E-06
   48.1199989       1.46842717E-06
   48.2400017       8.18655963E-07
   48.3600006       1.17154514E-07
   48.4799995      -6.03058822E-07
   48.5999985      -1.30695196E-06
   48.7200012      -1.95963094E-06
   48.8400002      -2.52851828E-06
   48.9599991      -2.98540272E-06
   49.0800018      -3.30820217E-06
   49.2000008      -3.48231811E-06
   49.3199997      -3.50147957E-06
   49.4399986      -3.36802350E-06
   49.5600014      -3.09259713E-06
   49.6800003      -2.69331372E-06
   49.7999992      -2.19443996E-06
   49.9199982      -1.62471747E-06
   50.0400009      -1.01545299E-06
   50.1599998      -3.98523468E-07
   50.2799988       1.95561313E-07
   50.4000015       7.39402083E-07
   50.5200005       1.21014762E-06
   50.6399994       1.59054230E-06
   50.7599983       1.86953605E-06
   50.8800011       2.04244225E-06
   51.0000000       2.11066822E-06
   51.1199989       2.08106940E-06
   51.2400017       1.96500696E-06
   51.3600006       1.77720153E-06
   51.4799995       1.53448161E-06
   51.5999985       1.25453175E-06
   51.7200012       9.54726033E-07
   51.8400002       6.51126243E-07
   51.9599991       3.57698156E-07
   52.0800018       8.57788649E-08
   52.2000008      -1.56193892E-07
   52.3199997      -3.62704185E-07
   52.4399986      -5.30962438E-07
   52.5600014      -6.60537808E-07
   52.6800003      -7.52874314E-07
   52.7999992      -8.10748531E-07
   52.9199982      -8.37727555E-07
   53.0400009      -8.37676680E-07
   53.1599998      -8.14358316E-07
   53.2799988      -7.71148450E-07
   53.4000015      -7.10884194E-07
   53.5200005      -6.35840820E-07
   53.6399994      -5.47824754E-07
   53.7599983      -4.48357667E-07
   53.8800011      -3.38921922E-07
   54.0000000      -2.21229968E-07
   54.1199989      -9.74830954E-08
   54.2400017       2.94152525E-08
   54.3600006       1.55721082E-07
   54.4799995       2.76809772E-07
   54.5999985       3.87249827E-07
   54.7200012       4.80997244E-07
   54.8400002       5.51708013E-07
   54.9599991       5.93155278E-07
   55.0800018       5.99729390E-07
   55.2000008       5.66986728E-07
   55.3199997       4.92207164E-07
   55.4399986       3.74912162E-07
   55.5600014       2.17290605E-07
   55.6800003       2.44817748E-08
   55.7999992      -1.95333158E-07
   55.9199982      -4.31068344E-07
   56.0400009      -6.69122301E-07
   56.1599998      -8.94022605E-07
   56.2799988      -1.08930715E-06
   56.4000015      -1.23859741E-06
   56.5200005      -1.32679827E-06
   56.6399994      -1.34133609E-06
   56.7599983      -1.27333544E-06
   56.8800011      -1.11862835E-06
   57.0000000      -8.78496337E-07
   57.1199989      -5.60059107E-07
   57.2400017      -1.76248193E-07
   57.3600006       2.54661046E-07
   57.4799995       7.09952587E-07
   57.5999985       1.16375986E-06
   57.7200012       1.58866123E-06
   57.8400002       1.95746520E-06
   57.9599991       2.24505629E-06
   58.0800018       2.43015256E-06
   58.2000008       2.49684126E-06
   58.3199997       2.43576369E-06
   58.4399986       2.24485802E-06
   58.5600014       1.92959510E-06
   58.6800003       1.50269250E-06
   58.7999992       9.83328277E-07
   58.9199982       3.95919159E-07
   59.0400009      -2.31436502E-07
   59.1599998      -8.68729785E-07
   59.2799988      -1.48588788E-06
   59.4000015      -2.05455854E-06
   59.5200005      -2.54970405E-06
   59.6399994      -2.95090126E-06
   59.7599983      -3.24326447E-06
   59.8800011      -3.41795817E-06
   60.0000000      -3.47228843E-06
   60.1199989      -3.40940119E-06
   60.2400017      -3.23764812E-06
   60.3600006      -2.96969711E-06
   60.4799995      -2.62147637E-06
   60.5999985      -2.21104779E-06
   60.7200012      -1.75749051E-06
   60.8400002      -1.27987141E-06
   60.9599991      -7.96352992E-07
   61.0800018      -3.23473500E-07
   61.2000008       1.24388976E-07
   61.3199997       5.35372294E-07
   61.4399986       9.00323130E-07
   61.5600014       1.21285336E-06
   61.6800003       1.46928403E-06
   61.7999992       1.66850566E-06
   61.9199982       1.81176983E-06
   62.0400009       1.90242349E-06
   62.1599998       1.94559289E-06
   62.2799988       1.94781387E-06
   62.4000015       1.91660797E-06
   62.5200005       1.86000887E-06
   62.6399994       1.78604387E-06
   62.7599983       1.70219187E-06
   62.8800011       1.61484706E-06
   63.0000000       1.52882365E-06
   63.1199989       1.44694991E-06
   63.2400017       1.36979634E-06
   63.3600006       1.29558111E-06
   63.4799995       1.22028484E-06
   63.5999985       1.13799365E-06
   63.7200012       1.04146500E-06
   63.8400002       9.22889853E-07
   63.9599991       7.74802174E-07
   64.0800018       5.91061792E-07
   64.1999969       3.67825379E-07
   64.3199997       1.04407498E-07
   64.4400024      -1.96062132E-07
   64.5599976      -5.26270526E-07
   64.6800003      -8.74706245E-07
   64.8000031      -1.22603262E-06
   64.9199982      -1.56185126E-06
   65.0400009      -1.86181944E-06
   65.1600037      -2.10505073E-06
   65.2799988      -2.27169539E-06
   65.4000015      -2.34457480E-06
   65.5199966      -2.31073022E-06
   65.6399994      -2.16274975E-06
   65.7600021      -1.89974332E-06
   65.8799973      -1.52786868E-06
   66.0000000      -1.06034247E-06
   66.1200027      -5.16914611E-07
   66.2399979       7.71682451E-08
   66.3600006       6.92641834E-07
   66.4800034       1.29803504E-06
   66.5999985       1.86167370E-06
   66.7200012       2.35372067E-06
   66.8399963       2.74809076E-06
   66.9599991       3.02409649E-06
   67.0800018       3.16769479E-06
   67.1999969       3.17225636E-06
   67.3199997       3.03880370E-06
   67.4400024       2.77572872E-06
   67.5599976       2.39802648E-06
   67.6800003       1.92613402E-06
   67.8000031       1.38448138E-06
   67.9199982       7.99881320E-07
   68.0400009       1.99886358E-07
   68.1600037      -3.88764846E-07
   68.2799988      -9.41513349E-07
   68.4000015      -1.43708007E-06
   68.5199966      -1.85825763E-06
   68.6399994      -2.19237745E-06
   68.7600021      -2.43146656E-06
   68.8799973      -2.57212969E-06
   69.0000000      -2.61520609E-06
   69.1200027      -2.56526118E-06
   69.2399979      -2.42997294E-06
   69.3600006      -2.21946766E-06
   69.4800034      -1.94564791E-06
   69.5999985      -1.62155413E-06
   69.7200012      -1.26077509E-06
   69.8399963      -8.76928652E-07
   69.9599991      -4.83214251E-07
   70.0800018      -9.20424981E-08
   70.1999969       2.85258068E-07
   70.3199997       6.38658832E-07
   70.4400024       9.59572617E-07
   70.5599976       1.24092139E-06
   70.6800003       1.47713172E-06
   70.8000031       1.66406767E-06
   70.9199982       1.79890901E-06
   71.0400009       1.87999581E-06
   71.1600037       1.90666015E-06
   71.2799988       1.87907017E-06
   71.4000015       1.79811639E-06
   71.5199966       1.66535949E-06
   71.6399994       1.48305969E-06
   71.7600021       1.25428767E-06
   71.8799973       9.83111477E-07
   72.0000000       6.74829892E-07
   72.1200027       3.36218307E-07
   72.2399979      -2.42678180E-08
   72.3600006      -3.96379818E-07
   72.4800034      -7.68107327E-07
   72.5999985      -1.12589180E-06
   72.7200012      -1.45504612E-06