  -30.0000000       0.00000000    
  -29.8799992       0.00000000    
  -29.7600002       0.00000000    
  -29.6399994       0.00000000    
  -29.5200005       0.00000000    
  -29.3999996       0.00000000    
  -29.2800007      -1.07503080E-25
  -29.1599998      -1.50054765E-24
  -29.0400009      -9.39024917E-24
  -28.9200001      -3.51660560E-23
  -28.7999992      -8.36191045E-23
  -28.6800003      -1.04137048E-22
  -28.5599995       8.69948738E-23
  -28.4400005       8.23341321E-22
  -28.3199997       2.36969393E-21
  -28.2000008       4.35078585E-21
  -28.0799999       5.03789384E-21
  -27.9599991       1.20823875E-21
  -27.8400002      -1.04637992E-20
  -27.7199993      -3.01098299E-20
  -27.6000004      -5.06574228E-20
  -27.4799995      -5.60901868E-20
  -27.3600006      -2.54670671E-20
  -27.2399998       5.58435383E-20
  -27.1200008       1.80578995E-19
  -27.0000000       3.07005189E-19
  -26.8799992       3.58591817E-19
  -26.7600002       2.42964142E-19
  -26.6399994      -1.08536604E-19
  -26.5200005      -6.87060301E-19
  -26.3999996      -1.35411265E-18
  -26.2800007      -1.81862358E-18
  -26.1599998      -1.68046642E-18
  -26.0400009      -5.71713015E-19
  -25.9200001       1.61351122E-18
  -25.7999992       4.48840070E-18
  -25.6800003       7.10918475E-18
  -25.5599995       8.23976446E-18
  -25.4400005       6.93634205E-18
  -25.3199997       3.12032586E-18
  -25.2000008      -2.46436398E-18
  -25.0799999      -9.37736031E-18
  -24.9599991      -1.93340647E-17
  -24.8400002      -3.70805084E-17
  -24.7199993      -6.76107191E-17
  -24.6000004      -1.07862777E-16
  -24.4799995      -1.34726559E-16
  -24.3600006      -9.72005115E-17
  -24.2399998       7.43756867E-17
  -24.1200008       4.30282149E-16
  -24.0000000       9.35200289E-16
  -23.8799992       1.39793555E-15
  -23.7600002       1.44714425E-15
  -23.6399994       6.14039859E-16
  -23.5200005      -1.44086943E-15
  -23.3999996      -4.58855408E-15
  -23.2800007      -7.91072276E-15
  -23.1599998      -9.61514024E-15
  -23.0400009      -7.41421491E-15
  -22.9200001       5.29341753E-16
  -22.7999992       1.42512091E-14
  -22.6800003       3.07260422E-14
  -22.5599995       4.34518042E-14
  -22.4400005       4.36131166E-14
  -22.3199997       2.31335269E-14
  -22.2000008      -2.08911901E-14
  -22.0799999      -8.18626240E-14
  -21.9599991      -1.41641392E-13
  -21.8400002      -1.72937822E-13
  -21.7199993      -1.47142647E-13
  -21.6000004      -4.64887799E-14
  -21.4799995       1.23073467E-13
  -21.3600006       3.23772584E-13
  -21.2399998       4.88266925E-13
  -21.1200008       5.35441158E-13
  -21.0000000       3.98224639E-13
  -20.8799992       5.61530328E-14
  -20.7600002      -4.39209568E-13
  -20.6399994      -9.58937140E-13
  -20.5200005      -1.32036786E-12
  -20.3999996      -1.33948538E-12
  -20.2800007      -9.00109523E-13
  -20.1599998      -1.76807116E-14
  -20.0400009       1.12871030E-12
  -19.9200001       2.21703580E-12
  -19.7999992       2.86164126E-12
  -19.6800003       2.73576366E-12
  -19.5599995       1.70156153E-12
  -19.4400005      -9.90816248E-14
  -19.3199997      -2.23507107E-12
  -19.2000008      -4.07815231E-12
  -19.0799999      -4.98267313E-12
  -18.9599991      -4.50391417E-12
  -18.8400002      -2.58274045E-12
  -18.7199993       3.75427283E-13
  -18.6000004       3.57187782E-12
  -18.4799995       6.03218517E-12
  -18.3600006       6.91210717E-12
  -18.2399998       5.79406575E-12
  -18.1200008       2.86813932E-12
  -18.0000000      -1.07824112E-12
  -17.8799992      -4.87598200E-12
  -17.7600002      -7.33641706E-12
  -17.6399994      -7.64315781E-12
  -17.5200005      -5.63816008E-12
  -17.3999996      -1.89655453E-12
  -17.2800007       2.44416857E-12
  -17.1599998       6.04781980E-12
  -17.0400009       7.81236967E-12
  -16.9200001       7.22176225E-12
  -16.7999992       4.49558099E-12
  -16.6800003       4.90083180E-13
  -16.5599995      -3.60456023E-12
  -16.4400005      -6.65379384E-12
  -16.3199997      -7.91326726E-12
  -16.2000008      -7.19816871E-12
  -16.0799999      -4.84969226E-12
  -15.9600000      -1.54290480E-12
  -15.8400002       1.96385139E-12
  -15.7200003       5.03078091E-12
  -15.6000004       7.22407594E-12
  -15.4799995       8.29111692E-12
  -15.3599997       8.08478891E-12
  -15.2399998       6.51906870E-12
  -15.1199999       3.60979627E-12
  -15.0000000      -4.08154684E-13
  -14.8800001      -4.95988667E-12
  -14.7600002      -9.10716294E-12
  -14.6400003      -1.16977105E-11
  -14.5200005      -1.16866959E-11
  -14.3999996      -8.53823869E-12
  -14.2799997      -2.55135041E-12
  -14.1599998       5.04527323E-12
  -14.0400000       1.23132702E-11
  -13.9200001       1.71045730E-11
  -13.8000002       1.76902624E-11
  -13.6800003       1.33051851E-11
  -13.5600004       4.41737142E-12
  -13.4399996      -7.36804975E-12
  -13.3199997      -1.97232647E-11
  -13.1999998      -3.01676323E-11
  -13.0799999      -3.65865498E-11
  -12.9600000      -3.75393779E-11
  -12.8400002      -3.23103211E-11
  -12.7200003      -2.07830784E-11
  -12.6000004      -3.29943278E-12
  -12.4799995       1.93457420E-11
  -12.3599997       4.57137418E-11
  -12.2399998       7.34128730E-11
  -12.1199999       9.88620505E-11
  -12.0000000       1.17350948E-10
  -11.8800001       1.23544119E-10
  -11.7600002       1.12413315E-10
  -11.6400003       8.03913811E-11
  -11.5200005       2.64005363E-11
  -11.3999996      -4.76201752E-11
  -11.2799997      -1.36954711E-10
  -11.1599998      -2.35165609E-10
  -11.0400000      -3.35751288E-10
  -10.9200001      -4.33971303E-10
  -10.8000002      -5.28302679E-10
  -10.6800003      -6.21044494E-10
  -10.5600004      -7.17795379E-10
  -10.4399996      -8.25839785E-10
  -10.3199997      -9.51809187E-10
  -10.1999998      -1.09924481E-09
  -10.0799999      -1.26678878E-09
  -9.96000004      -1.44763879E-09
  -9.84000015      -1.63059866E-09
  -9.72000027      -1.80262494E-09
  -9.60000038      -1.95230254E-09
  -9.47999954      -2.07333017E-09
  -9.35999966      -2.16697593E-09
  -9.23999977      -2.24264118E-09
  -9.11999989      -2.31616415E-09
  -9.00000000      -2.40613507E-09
  -8.88000011      -2.52915155E-09
  -8.76000023      -2.69536238E-09
  -8.64000034      -2.90568836E-09
  -8.52000046      -3.15170978E-09
  -8.39999962      -3.41846351E-09
  -8.27999973      -3.68950825E-09
  -8.15999985      -3.95287314E-09
  -8.03999996      -4.20614299E-09
  -7.92000008      -4.45908155E-09
  -7.80000019      -4.73284878E-09
  -7.67999983      -5.05580022E-09
  -7.55999994      -5.45683498E-09
  -7.44000006      -5.95800032E-09
  -7.32000017      -6.56830546E-09
  -7.19999981      -7.28046512E-09
  -7.07999992      -8.07158695E-09
  -6.96000004      -8.90786733E-09
  -6.84000015      -9.75235093E-09
  -6.71999979      -1.05740527E-08
  -6.59999990      -1.13563408E-08
  -6.48000002      -1.21024986E-08
  -6.36000013      -1.28370292E-08
  -6.23999977      -1.36020963E-08
  -6.11999989      -1.44497267E-08
  -6.00000000      -1.54314392E-08
  -5.88000011      -1.65877037E-08
  -5.76000023      -1.79398398E-08
  -5.63999987      -1.94864143E-08
  -5.51999998      -2.12050804E-08
  -5.40000010      -2.30594335E-08
  -5.28000021      -2.50090579E-08
  -5.15999985      -2.70201976E-08
  -5.03999996      -2.90743571E-08
  -4.92000008      -3.11729238E-08
  -4.80000019      -3.33370771E-08
  -4.67999983      -3.56034811E-08
  -4.55999994      -3.80174185E-08
  -4.44000006      -4.06251424E-08
  -4.32000017      -4.34671321E-08
  -4.19999981      -4.65733585E-08
  -4.07999992      -4.99608888E-08
  -3.96000004      -5.36338050E-08
  -3.83999991      -5.75851722E-08
  -3.72000003      -6.18006766E-08
  -3.59999990      -6.62636594E-08
  -3.48000002      -7.09607733E-08
  -3.35999990      -7.58874066E-08
  -3.24000001      -8.10514891E-08
  -3.11999989      -8.64745360E-08
  -3.00000000      -9.21893815E-08
  -2.88000011      -9.82349206E-08
  -2.75999999      -1.04649381E-07
  -2.64000010      -1.11464381E-07
  -2.51999998      -1.18701607E-07
  -2.40000010      -1.26373607E-07
  -2.27999997      -1.34488104E-07
  -2.16000009      -1.43054649E-07
  -2.03999996      -1.52091019E-07
  -1.91999996      -1.61626986E-07
  -1.79999995      -1.71704514E-07
  -1.67999995      -1.82374251E-07
  -1.55999994      -1.93689814E-07
  -1.44000006      -2.05702094E-07
  -1.32000005      -2.18455369E-07
  -1.20000005      -2.31986292E-07
  -1.08000004      -2.46325754E-07
 -0.959999979      -2.61502464E-07
 -0.839999974      -2.77546746E-07
 -0.720000029      -2.94493077E-07
 -0.600000024      -3.12380422E-07
 -0.479999989      -3.31251073E-07
 -0.360000014      -3.51148202E-07
 -0.239999995      -3.72113448E-07
 -0.119999997      -3.94186088E-07
  -1.11022302E-15  -4.17403982E-07
  0.119999997      -4.41806492E-07
  0.239999995      -4.67439065E-07
  0.360000014      -4.94357380E-07
  0.479999989      -5.22631069E-07
  0.600000024      -5.52344545E-07
  0.720000029      -5.83595352E-07
  0.839999974      -6.16489785E-07
  0.959999979      -6.51136418E-07
   1.08000004      -6.87639840E-07
   1.20000005      -7.26094129E-07
   1.32000005      -7.66578808E-07
   1.44000006      -8.09157257E-07
   1.55999994      -8.53877850E-07
   1.67999995      -9.00778389E-07
   1.79999995      -9.49893320E-07
   1.91999996      -1.00126238E-06
   2.03999996      -1.05493962E-06
   2.16000009      -1.11100098E-06
   2.27999997      -1.16954777E-06
   2.40000010      -1.23070424E-06
   2.51999998      -1.29461125E-06
   2.64000010      -1.36141500E-06
   2.75999999      -1.43125806E-06
   2.88000011      -1.50427161E-06
   3.00000000      -1.58057549E-06
   3.11999989      -1.66028303E-06
   3.24000001      -1.74350873E-06
   3.35999990      -1.83037707E-06
   3.48000002      -1.92102311E-06
   3.59999990      -2.01559124E-06
   3.72000003      -2.11422775E-06
   3.83999991      -2.21707319E-06
   3.96000004      -2.32426260E-06
   4.07999992      -2.43592967E-06
   4.19999981      -2.55221835E-06
   4.32000017      -2.67329483E-06
   4.44000006      -2.79935443E-06
   4.55999994      -2.93061908E-06
   4.67999983      -3.06732545E-06
   4.80000019      -3.20970571E-06
   4.92000008      -3.35797517E-06
   5.03999996      -3.51232484E-06
   5.15999985      -3.67292796E-06
   5.28000021      -3.83995575E-06
   5.40000010      -4.01359148E-06
   5.51999998      -4.19404023E-06
   5.63999987      -4.38152301E-06
   5.76000023      -4.57626584E-06
   5.88000011      -4.77847789E-06
   6.00000000      -4.98834152E-06
   6.11999989      -5.20601543E-06
   6.23999977      -5.43164560E-06
   6.36000013      -5.66539529E-06
   6.48000002      -5.90746595E-06
   6.59999990      -6.15810677E-06
   6.71999979      -6.41760516E-06
   6.84000015      -6.68626490E-06
   6.96000004      -6.96437473E-06
   7.07999992      -7.25218706E-06
   7.19999981      -7.54991333E-06
   7.32000017      -7.85773318E-06
   7.44000006      -8.17582804E-06
   7.55999994      -8.50439756E-06
   7.67999983      -8.84368546E-06
   7.80000019      -9.19397826E-06
   7.92000008      -9.55559153E-06
   8.03999996      -9.92884816E-06
   8.15999985      -1.03140601E-05
   8.27999973      -1.07115238E-05
   8.39999962      -1.11215186E-05
   8.52000046      -1.15443236E-05
   8.64000034      -1.19802207E-05
   8.76000023      -1.24295057E-05
   8.88000011      -1.28924703E-05
   9.00000000      -1.33693984E-05
   9.11999989      -1.38605474E-05
   9.23999977      -1.43661518E-05
   9.35999966      -1.48864292E-05
   9.47999954      -1.54216086E-05
   9.60000038      -1.59719348E-05
   9.72000027      -1.65376969E-05
   9.84000015      -1.71192059E-05
   9.96000004      -1.77167876E-05
   10.0799999      -1.83307548E-05
   10.1999998      -1.89613802E-05
   10.3199997      -1.96088895E-05
   10.4399996      -2.02734809E-05
   10.5600004      -2.09553236E-05
   10.6800003      -2.16545941E-05
   10.8000002      -2.23714906E-05
   10.9200001      -2.31062149E-05
   11.0400000      -2.38589819E-05
   11.1599998      -2.46299824E-05
   11.2799997      -2.54193710E-05
   11.3999996      -2.62272733E-05
   11.5200005      -2.70537766E-05
   11.6400003      -2.78989646E-05
   11.7600002      -2.87629355E-05
   11.8800001      -2.96458202E-05
   12.0000000      -3.05477733E-05
   12.1199999      -3.14689678E-05
   12.2399998      -3.24095599E-05
   12.3599997      -3.33696553E-05
   12.4799995      -3.43493048E-05
   12.6000004      -3.53484793E-05
   12.7200003      -3.63671134E-05
   12.8400002      -3.74050978E-05
   12.9600000      -3.84622981E-05
   13.0799999      -3.95385650E-05
   13.1999998      -4.06337349E-05
   13.3199997      -4.17476040E-05
   13.4399996      -4.28799540E-05
   13.5600004      -4.40305048E-05
   13.6800003      -4.51989617E-05
   13.8000002      -4.63850338E-05
   13.9200001      -4.75884299E-05
   14.0400000      -4.88088845E-05
   14.1599998      -5.00461247E-05
   14.2799997      -5.12998668E-05
   14.3999996      -5.25697433E-05
   14.5200005      -5.38553031E-05
   14.6400003      -5.51559715E-05
   14.7600002      -5.64710681E-05
   14.8800001      -5.77998435E-05
   15.0000000      -5.91415228E-05
   15.1199999      -6.04953348E-05
   15.2399998      -6.18604972E-05
   15.3599997      -6.32362717E-05
   15.4799995      -6.46218468E-05
   15.6000004      -6.60163932E-05
   15.7200003      -6.74189432E-05
   15.8400002      -6.88284781E-05
   15.9600000      -7.02438410E-05
   16.0799999      -7.16638751E-05
   16.2000008      -7.30873580E-05
   16.3199997      -7.45130310E-05
   16.4400005      -7.59396135E-05
   16.5599995      -7.73657375E-05
   16.6800003      -7.87899698E-05
   16.7999992      -8.02107897E-05
   16.9200001      -8.16266402E-05
   17.0400009      -8.30358986E-05
   17.1599998      -8.44369206E-05
   17.2800007      -8.58280182E-05
   17.3999996      -8.72074379E-05
   17.5200005      -8.85733389E-05
   17.6399994      -8.99237129E-05
   17.7600002      -9.12563992E-05
   17.8799992      -9.25691129E-05
   18.0000000      -9.38594749E-05
   18.1200008      -9.51250695E-05
   18.2399998      -9.63634666E-05
   18.3600006      -9.75722796E-05
   18.4799995      -9.87491148E-05
   18.6000004      -9.98915566E-05
   18.7199993      -1.00997102E-04
   18.8400002      -1.02063139E-04
   18.9599991      -1.03086939E-04
   19.0799999      -1.04065672E-04
   19.2000008      -1.04996434E-04
   19.3199997      -1.05876272E-04
   19.4400005      -1.06702209E-04
   19.5599995      -1.07471184E-04
   19.6800003      -1.08180102E-04
   19.7999992      -1.08825778E-04
   19.9200001      -1.09404922E-04
   20.0400009      -1.09914152E-04
   20.1599998      -1.10350025E-04
   20.2800007      -1.10709050E-04
   20.3999996      -1.10987705E-04
   20.5200005      -1.11182417E-04
   20.6399994      -1.11289570E-04
   20.7600002      -1.11305533E-04
   20.8799992      -1.11226611E-04
   21.0000000      -1.11049070E-04
   21.1200008      -1.10769157E-04
   21.2399998      -1.10383124E-04
   21.3600006      -1.09887253E-04
   21.4799995      -1.09277848E-04
   21.6000004      -1.08551212E-04
   21.7199993      -1.07703658E-04
   21.8400002      -1.06731437E-04
   21.9599991      -1.05630766E-04
   22.0799999      -1.04397819E-04
   22.2000008      -1.03028709E-04
   22.3199997      -1.01519552E-04
   22.4400005      -9.98664837E-05
   22.5599995      -9.80656769E-05
   22.6800003      -9.61133919E-05
   22.7999992      -9.40059253E-05
   22.9200001      -9.17396465E-05
   23.0400009      -8.93109536E-05
   23.1599998      -8.67163326E-05
   23.2800007      -8.39523564E-05
   23.3999996      -8.10156780E-05
   23.5200005      -7.79030815E-05
   23.6399994      -7.46114456E-05
   23.7600002      -7.11377797E-05
   23.8799992      -6.74791663E-05
   24.0000000      -6.36327677E-05
   24.1200008      -5.95958300E-05
   24.2399998      -5.53657046E-05
   24.3600006      -5.09398524E-05
   24.4799995      -4.63158649E-05
   24.6000004      -4.14915194E-05
   24.7199993      -3.64647531E-05
   24.8400002      -3.12336888E-05
   24.9599991      -2.57965985E-05
   25.0799999      -2.01519288E-05
   25.2000008      -1.42982981E-05
   25.3199997      -8.23450773E-06
   25.4400005      -1.95955909E-06
   25.5599995       4.52731592E-06
   25.6800003       1.12266453E-05
   25.7999992       1.81386949E-05
   25.9200001       2.52635036E-05
   26.0400009       3.26008885E-05
   26.1599998       4.01504294E-05
   26.2800007       4.79114897E-05
   26.3999996       5.58831744E-05
   26.5200005       6.40643048E-05
   26.6399994       7.24534038E-05
   26.7600002       8.10486745E-05
   26.8799992       8.98480284E-05
   27.0000000       9.88490719E-05
   27.1200008       1.08049178E-04
   27.2399998       1.17445488E-04
   27.3600006       1.27034888E-04
   27.4799995       1.36814022E-04
   27.6000004       1.46779188E-04
   27.7199993       1.56926399E-04
   27.8400002       1.67251317E-04
   27.9599991       1.77749214E-04
   28.0799999       1.88415070E-04
   28.2000008       1.99243630E-04
   28.3199997       2.10229235E-04
   28.4400005       2.21365990E-04
   28.5599995       2.32647726E-04
   28.6800003       2.44067880E-04
   28.7999992       2.55619612E-04
   28.9200001       2.67295720E-04
   29.0400009       2.79088767E-04
   29.1599998       2.90991127E-04
   29.2800007       3.02994798E-04
   29.3999996       3.15091631E-04
   29.5200005       3.27273185E-04
   29.6399994       3.39530758E-04
   29.7600002       3.51855182E-04
   29.8799992       3.64237232E-04
   30.0000000       3.76667129E-04
   30.1200008       3.89135152E-04
   30.2399998       4.01631143E-04
   30.3600006       4.14145004E-04
   30.4799995       4.26666345E-04
   30.6000004       4.39184572E-04
   30.7199993       4.51688946E-04
   30.8400002       4.64168465E-04
   30.9599991       4.76611953E-04
   31.0799999       4.89007973E-04
   31.2000008       5.01345203E-04
   31.3199997       5.13611885E-04
   31.4400005       5.25796437E-04
   31.5599995       5.37887099E-04
   31.6800003       5.49871940E-04
   31.7999992       5.61739260E-04
   31.9200001       5.73477068E-04
   32.0400009       5.85073489E-04
   32.1599998       5.96516766E-04
   32.2799988       6.07794907E-04
   32.4000015       6.18896156E-04
   32.5200005       6.29808812E-04
   32.6399994       6.40521059E-04
   32.7599983       6.51021197E-04
   32.8800011       6.61297818E-04
   33.0000000       6.71339221E-04
   33.1199989       6.81134348E-04
   33.2400017       6.90671906E-04
   33.3600006       6.99940894E-04
   33.4799995       7.08930427E-04
   33.5999985       7.17629911E-04
   33.7200012       7.26028928E-04
   33.8400002       7.34117697E-04
   33.9599991       7.41886324E-04
   34.0800018       7.49325554E-04
   34.2000008       7.56426249E-04
   34.3199997       7.63179443E-04
   34.4399986       7.69576698E-04
   34.5600014       7.75609573E-04
   34.6800003       7.81270384E-04
   34.7999992       7.86551507E-04
   34.9199982       7.91446131E-04
   35.0400009       7.95947504E-04
   35.1599998       8.00049456E-04
   35.2799988       8.03746283E-04
   35.4000015       8.07032571E-04
   35.5200005       8.09903489E-04
   35.6399994       8.12354789E-04
   35.7599983       8.14382453E-04
   35.8800011       8.15983280E-04
   36.0000000       8.17154360E-04
   36.1199989       8.17893248E-04
   36.2400017       8.18198081E-04
   36.3600006       8.18067754E-04
   36.4799995       8.17501335E-04
   36.5999985       8.16498708E-04
   36.7200012       8.15059990E-04
   36.8400002       8.13186227E-04
   36.9599991       8.10878759E-04
   37.0800018       8.08139564E-04
   37.2000008       8.04971089E-04
   37.3199997       8.01376416E-04
   37.4399986       7.97358982E-04
   37.5600014       7.92923092E-04
   37.6800003       7.88073230E-04
   37.7999992       7.82814575E-04
   37.9199982       7.77152716E-04
   38.0400009       7.71093764E-04
   38.1599998       7.64644297E-04
   38.2799988       7.57811300E-04
   38.4000015       7.50602456E-04
   38.5200005       7.43025972E-04
   38.6399994       7.35090405E-04
   38.7599983       7.26804836E-04
   38.8800011       7.18178635E-04
   39.0000000       7.09221815E-04
   39.1199989       6.99944678E-04
   39.2400017       6.90357876E-04
   39.3600006       6.80472469E-04
   39.4799995       6.70299924E-04
   39.5999985       6.59851823E-04
   39.7200012       6.49140333E-04
   39.8400002       6.38177677E-04
   39.9599991       6.26976369E-04
   40.0800018       6.15549274E-04
   40.2000008       6.03909430E-04
   40.3199997       5.92069875E-04
   40.4399986       5.80044230E-04
   40.5600014       5.67846117E-04
   40.6800003       5.55489154E-04
   40.7999992       5.42987487E-04
   40.9199982       5.30355086E-04
   41.0400009       5.17606153E-04
   41.1599998       5.04754775E-04
   41.2799988       4.91815154E-04
   41.4000015       4.78801550E-04
   41.5200005       4.65728110E-04
   41.6399994       4.52608947E-04
   41.7599983       4.39458207E-04
   41.8800011       4.26289829E-04
   42.0000000       4.13117727E-04
   42.1199989       3.99955548E-04
   42.2400017       3.86816915E-04
   42.3600006       3.73715186E-04
   42.4799995       3.60663660E-04
   42.5999985       3.47675290E-04
   42.7200012       3.34762939E-04
   42.8400002       3.21939267E-04
   42.9599991       3.09216615E-04
   43.0800018       2.96607031E-04
   43.2000008       2.84122274E-04
   43.3199997       2.71773722E-04
   43.4399986       2.59572349E-04
   43.5600014       2.47528922E-04
   43.6800003       2.35653744E-04
   43.7999992       2.23956798E-04
   43.9199982       2.12447732E-04
   44.0400009       2.01135714E-04
   44.1599998       1.90029576E-04
   44.2799988       1.79137656E-04
   44.4000015       1.68467930E-04
   44.5200005       1.58027862E-04
   44.6399994       1.47824481E-04
   44.7599983       1.37864394E-04
   44.8800011       1.28153726E-04
   45.0000000       1.18698117E-04
   45.1199989       1.09502784E-04
   45.2400017       1.00572492E-04
   45.3600006       9.19115919E-05
   45.4799995       8.35239480E-05
   45.5999985       7.54130378E-05
   45.7200012       6.75818155E-05
   45.8400002       6.00327476E-05
   45.9599991       5.27677730E-05
   46.0800018       4.57883434E-05
   46.2000008       3.90954046E-05
   46.3199997       3.26894879E-05
   46.4399986       2.65707331E-05
   46.5600014       2.07389021E-05
   46.6800003       1.51933937E-05
   46.7999992       9.93320828E-06
   46.9199982       4.95692984E-06
   47.0400009       2.62688246E-07
   47.1599998      -4.15182649E-06
   47.2799988      -8.28933389E-06
   47.4000015      -1.21529338E-05
   47.5200005      -1.57460436E-05
   47.6399994      -1.90723840E-05
   47.7599983      -2.21359569E-05
   47.8800011      -2.49410641E-05
   48.0000000      -2.74923168E-05
   48.1199989      -2.97946426E-05
   48.2400017      -3.18532766E-05
   48.3600006      -3.36737357E-05
   48.4799995      -3.52617826E-05
   48.5999985      -3.66233835E-05
   48.7200012      -3.77646829E-05
   48.8400002      -3.86919819E-05
   48.9599991      -3.94117487E-05
   49.0800018      -3.99306009E-05
   49.2000008      -4.02553305E-05
   49.3199997      -4.03928752E-05
   49.4399986      -4.03503000E-05
   49.5600014      -4.01347461E-05
   49.6800003      -3.97534204E-05
   49.7999992      -3.92135444E-05
   49.9199982      -3.85223939E-05
   50.0400009      -3.76872958E-05
   50.1599998      -3.67156645E-05
   50.2799988      -3.56150231E-05
   50.4000015      -3.43929532E-05
   50.5200005      -3.30570583E-05
   50.6399994      -3.16148944E-05
   50.7599983      -3.00738866E-05
   50.8800011      -2.84413018E-05
   51.0000000      -2.67242540E-05
   51.1199989      -2.49297409E-05
   51.2400017      -2.30647001E-05
   51.3600006      -2.11360493E-05
   51.4799995      -1.91506897E-05
   51.5999985      -1.71154497E-05
   51.7200012      -1.50370442E-05
   51.8400002      -1.29219934E-05
   51.9599991      -1.07766000E-05
   52.0800018      -8.60695764E-06
   52.2000008      -6.41898168E-06
   52.3199997      -4.21846471E-06
   52.4399986      -2.01108878E-06
   52.5600014       1.97586601E-07
   52.6800003       2.40216832E-06
   52.7999992       4.59747798E-06
   52.9199982       6.77859225E-06
   53.0400009       8.94084042E-06
   53.1599998       1.10797782E-05
   53.2799988       1.31911484E-05
   53.4000015       1.52708562E-05
   53.5200005       1.73149747E-05
   53.6399994       1.93197684E-05
   53.7599983       2.12817304E-05
   53.8800011       2.31976173E-05
   54.0000000       2.50644334E-05
   54.1199989       2.68794083E-05
   54.2400017       2.86399591E-05
   54.3600006       3.03436609E-05
   54.4799995       3.19882347E-05
   54.5999985       3.35715667E-05
   54.7200012       3.50917544E-05
   54.8400002       3.65471060E-05
   54.9599991       3.79361845E-05
   55.0800018       3.92577567E-05
   55.2000008       4.05107785E-05
   55.3199997       4.16943585E-05
   55.4399986       4.28077547E-05
   55.5600014       4.38503812E-05
   55.6800003       4.48218525E-05
   55.7999992       4.57219721E-05
   55.9199982       4.65507619E-05
   56.0400009       4.73083746E-05
   56.1599998       4.79951086E-05
   56.2799988       4.86113277E-05
   56.4000015       4.91574829E-05
   56.5200005       4.96340981E-05
   56.6399994       5.00418391E-05
   56.7599983       5.03815427E-05
   56.8800011       5.06542347E-05
   57.0000000       5.08611229E-05
   57.1199989       5.10035461E-05
   57.2400017       5.10829159E-05
   57.3600006       5.11006547E-05
   57.4799995       5.10581995E-05
   57.5999985       5.09570018E-05
   57.7200012       5.07985569E-05
   57.8400002       5.05844546E-05
   57.9599991       5.03163719E-05
   58.0800018       4.99960806E-05
   58.2000008       4.96254324E-05
   58.3199997       4.92063009E-05
   58.4399986       4.87405814E-05
   58.5600014       4.82301875E-05
   58.6800003       4.76770656E-05
   58.7999992       4.70832165E-05
   58.9199982       4.64507029E-05
   59.0400009       4.57816350E-05
   59.1599998       4.50781263E-05
   59.2799988       4.43422505E-05
   59.4000015       4.35760048E-05
   59.5200005       4.27813029E-05
   59.6399994       4.19599783E-05
   59.7599983       4.11138572E-05
   59.8800011       4.02447949E-05
   60.0000000       3.93546943E-05
   60.1199989       3.84455379E-05
   60.2400017       3.75193194E-05
   60.3600006       3.65780325E-05
   60.4799995       3.56235869E-05
   60.5999985       3.46577835E-05
   60.7200012       3.36823177E-05
   60.8400002       3.26987756E-05
   60.9599991       3.17087070E-05
   61.0800018       3.07136434E-05
   61.2000008       2.97151200E-05
   61.3199997       2.87146631E-05
   61.4399986       2.77137715E-05
   61.5600014       2.67138748E-05
   61.6800003       2.57163210E-05
   61.7999992       2.47223652E-05
   61.9199982       2.37332006E-05
   62.0400009       2.27499895E-05
   62.1599998       2.17738907E-05
   62.2799988       2.08060665E-05
   62.4000015       1.98476719E-05
   62.5200005       1.88998038E-05
   62.6399994       1.79634626E-05
   62.7599983       1.70395215E-05
   62.8800011       1.61287153E-05
   63.0000000       1.52316934E-05
   63.1199989       1.43490588E-05
   63.2400017       1.34814245E-05
   63.3600006       1.26294453E-05
   63.4799995       1.17937925E-05
   63.5999985       1.09751127E-05
   63.7200012       1.01739679E-05
   63.8400002       9.39078109E-06
   63.9599991       8.62582874E-06
   64.0800018       7.87927456E-06
   64.1999969       7.15123269E-06
   64.3199997       6.44183501E-06
   64.4400024       5.75126614E-06
   64.5599976       5.07976029E-06
   64.6800003       4.42755481E-06
   64.8000031       3.79482708E-06
   64.9199982       3.18164530E-06
   65.0400009       2.58795717E-06
   65.1600037       2.01361922E-06
   65.2799988       1.45845411E-06
   65.4000015       9.22302149E-07
   65.5199966       4.05046421E-07
   65.6399994      -9.33967499E-08
   65.7600021      -5.73120303E-07
   65.8799973      -1.03427533E-06
   66.0000000      -1.47709966E-06
   66.1200027      -1.90191543E-06
   66.2399979      -2.30909473E-06
   66.3600006      -2.69901579E-06
   66.4800034      -3.07202913E-06
   66.5999985      -3.42844692E-06
   66.7200012      -3.76856360E-06
   66.8399963      -4.09268569E-06
   66.9599991      -4.40116173E-06
   67.0800018      -4.69438646E-06
   67.1999969      -4.97279052E-06
   67.3199997      -5.23681501E-06
   67.4400024      -5.48689195E-06
   67.5599976      -5.72343743E-06
   67.6800003      -5.94686253E-06
   67.8000031      -6.15759791E-06
   67.9199982      -6.35610377E-06
   68.0400009      -6.54287260E-06
   68.1600037      -6.71840689E-06
   68.2799988      -6.88319233E-06
   68.4000015      -7.03767637E-06
   68.5199966      -7.18225965E-06
   68.6399994      -7.31731234E-06
   68.7600021      -7.44319823E-06
   68.8799973      -7.56030568E-06
   69.0000000      -7.66906851E-06
   69.1200027      -7.76996421E-06
   69.2399979      -7.86350938E-06
   69.3600006      -7.95023152E-06
   69.4800034      -8.03064358E-06
   69.5999985      -8.10522852E-06
   69.7200012      -8.17441924E-06
   69.8399963      -8.23859136E-06
   69.9599991      -8.29806959E-06
   70.0800018      -8.35313131E-06
   70.1999969      -8.40402663E-06
   70.3199997      -8.45100658E-06
   70.4400024      -8.49433945E-06
   70.5599976      -8.53433176E-06
   70.6800003      -8.57132363E-06
   70.8000031      -8.60568070E-06
   70.9199982      -8.63776495E-06
   71.0400009      -8.66792379E-06
   71.1600037      -8.69647829E-06
   71.2799988      -8.72372857E-06
   71.4000015      -8.74997568E-06
   71.5199966      -8.77552702E-06
   71.6399994      -8.80070456E-06
   71.7600021      -8.82581571E-06
   71.8799973      -8.85112786E-06
   72.0000000      -8.87682563E-06
   72.1200027      -8.90300544E-06
   72.2399979      -8.92968364E-06
   72.3600006      -8.95684298E-06
   72.4800034      -8.98449252E-06
   72.5999985      -9.01271051E-06
   72.7200012      -9.04166791E-06