  -30.0000000       0.00000000    
  -29.8799992       0.00000000    
  -29.7600002       0.00000000    
  -29.6399994       0.00000000    
  -29.5200005       0.00000000    
  -29.3999996       0.00000000    
  -29.2800007       0.00000000    
  -29.1599998       0.00000000    
  -29.0400009      -9.15434880E-35
  -28.9200001      -5.25950225E-33
  -28.7999992      -5.32439814E-32
  -28.6800003      -2.63677983E-31
  -28.5599995      -7.09624875E-31
  -28.4400005      -4.63632698E-31
  -28.3199997       5.02049800E-30
  -28.2000008       2.76534771E-29
  -28.0799999       8.74778325E-29
  -27.9599991       2.03797766E-28
  -27.8400002       3.76000579E-28
  -27.7199993       5.70548705E-28
  -27.6000004       7.38656871E-28
  -27.4799995       8.40027471E-28
  -27.3600006       7.11430721E-28
  -27.2399998      -5.10078694E-28
  -27.1200008      -5.50777291E-27
  -27.0000000      -1.96094689E-26
  -26.8799992      -4.87382549E-26
  -26.7600002      -9.05153486E-26
  -26.6399994      -1.16373858E-25
  -26.5200005      -5.14166534E-26
  -26.3999996       2.24070763E-25
  -26.2800007       8.09488928E-25
  -26.1599998       1.61612691E-24
  -26.0400009       2.11539047E-24
  -25.9200001       1.15892177E-24
  -25.7999992      -2.78705702E-24
  -25.6800003      -1.05544895E-23
  -25.5599995      -2.01486908E-23
  -25.4400005      -2.42744097E-23
  -25.3199997      -9.67339423E-24
  -25.2000008       3.82128924E-23
  -25.0799999       1.22149242E-22
  -24.9599991       2.12731073E-22
  -24.8400002       2.30910164E-22
  -24.7199993       5.46795213E-23
  -24.6000004      -4.24046437E-22
  -24.4799995      -1.18046994E-21
  -24.3600006      -1.90688638E-21
  -24.2399998      -1.92867802E-21
  -24.1200008      -3.39308664E-22
  -24.0000000       3.50807984E-21
  -23.8799992       9.16559820E-21
  -23.7600002       1.42255194E-20
  -23.6399994       1.40909183E-20
  -23.5200005       3.21596776E-21
  -23.3999996      -2.16772664E-20
  -23.2800007      -5.69257684E-20
  -23.1599998      -8.78868544E-20
  -23.0400009      -8.90322734E-20
  -22.9200001      -3.17437895E-20
  -22.7999992       9.90355042E-20
  -22.6800003       2.83300752E-19
  -22.5599995       4.50073417E-19
  -22.4400005       4.81776148E-19
  -22.3199997       2.51278109E-19
  -22.2000008      -3.07945125E-19
  -22.0799999      -1.11840981E-18
  -21.9599991      -1.90313766E-18
  -21.8400002      -2.20889339E-18
  -21.7199993      -1.54415761E-18
  -21.6000004       3.76663128E-19
  -21.4799995       3.35583452E-18
  -21.3600006       6.53291738E-18
  -21.2399998       8.45050278E-18
  -21.1200008       7.45669325E-18
  -21.0000000       2.40660300E-18
  -20.8799992      -6.54171197E-18
  -20.7600002      -1.73750446E-17
  -20.6399994      -2.62753855E-17
  -20.5200005      -2.84900392E-17
  -20.3999996      -1.99503192E-17
  -20.2800007       7.76950277E-19
  -20.1599998       3.08833043E-17
  -20.0400009       6.27876209E-17
  -19.9200001       8.51933496E-17
  -19.7999992       8.58105587E-17
  -19.6800003       5.52957468E-17
  -19.5599995      -8.49060284E-18
  -19.4400005      -9.70833033E-17
  -19.3199997      -1.90108578E-16
  -19.2000008      -2.57182920E-16
  -19.0799999      -2.63756213E-16
  -18.9599991      -1.80923339E-16
  -18.8400002       1.99964709E-18
  -18.7199993       2.65072290E-16
  -18.6000004       5.50264525E-16
  -18.4799995       7.64682128E-16
  -18.3600006       7.99142075E-16
  -18.2399998       5.62649682E-16
  -18.1200008       2.64030708E-17
  -18.0000000      -7.36845025E-16
  -17.8799992      -1.53733865E-15
  -17.7600002      -2.09443338E-15
  -17.6399994      -2.11112522E-15
  -17.5200005      -1.38501417E-15
  -17.3999996       7.73559390E-17
  -17.2800007       1.98995886E-15
  -17.1599998       3.80554878E-15
  -17.0400009       4.84452829E-15
  -16.9200001       4.51575626E-15
  -16.7999992       2.56593025E-15
  -16.6800003      -7.35733189E-16
  -16.5599995      -4.56861450E-15
  -16.4400005      -7.73697597E-15
  -16.3199997      -9.02825822E-15
  -16.2000008      -7.65123082E-15
  -16.0799999      -3.59895829E-15
  -15.9600000       2.21757228E-15
  -15.8400002       8.15493930E-15
  -15.7200003       1.23196876E-14
  -15.6000004       1.32047803E-14
  -15.4799995       1.02565398E-14
  -15.3599997       4.14724653E-15
  -15.2399998      -3.38184532E-15
  -15.1199999      -1.00862295E-14
  -15.0000000      -1.40050918E-14
  -14.8800001      -1.41722546E-14
  -14.7600002      -1.09545492E-14
  -14.6400003      -5.84683931E-15
  -14.5200005      -7.68902046E-16
  -14.3999996       2.86296861E-15
  -14.2799997       4.87335451E-15
  -14.1599998       6.47628601E-15
  -14.0400000       9.64065541E-15
  -13.9200001       1.58154841E-14
  -13.8000002       2.45094929E-14
  -13.6800003       3.24315092E-14
  -13.5600004       3.38412803E-14
  -13.4399996       2.23889578E-14
  -13.3199997      -5.88537465E-15
  -13.1999998      -4.93615023E-14
  -13.0799999      -9.88346706E-14
  -12.9600000      -1.38007742E-13
  -12.8400002      -1.47152974E-13
  -12.7200003      -1.09519720E-13
  -12.6000004      -1.88385955E-14
  -12.4799995       1.14625337E-13
  -12.3599997       2.62157158E-13
  -12.2399998       3.80661485E-13
  -12.1199999       4.22854270E-13
  -12.0000000       3.51586951E-13
  -11.8800001       1.54460998E-13
  -11.7600002      -1.45999925E-13
  -11.6400003      -4.90812306E-13
  -11.5200005      -7.93820250E-13
  -11.3999996      -9.60982379E-13
  -11.2799997      -9.15618167E-13
  -11.1599998      -6.23157667E-13
  -11.0400000      -1.08138318E-13
  -10.9200001       5.42531569E-13
  -10.8000002       1.19282123E-12
  -10.6800003       1.68570626E-12
  -10.5600004       1.88010415E-12
  -10.4399996       1.68742526E-12
  -10.3199997       1.09785000E-12
  -10.1999998       1.88683311E-13
  -10.0799999      -8.88105778E-13
  -9.96000004      -1.93609798E-12
  -9.84000015      -2.75413178E-12
  -9.72000027      -3.17471657E-12
  -9.60000038      -3.09163871E-12
  -9.47999954      -2.47200914E-12
  -9.35999966      -1.35441430E-12
  -9.23999977       1.59937113E-13
  -9.11999989       1.91484437E-12
  -9.00000000       3.70099307E-12
  -8.88000011       5.25510278E-12
  -8.76000023       6.26717862E-12
  -8.64000034       6.41017838E-12
  -8.52000046       5.40195536E-12
  -8.39999962       3.09654429E-12
  -8.27999973      -4.15622723E-13
  -8.15999985      -4.73393286E-12
  -8.03999996      -9.14013830E-12
  -7.92000008      -1.26859200E-11
  -7.80000019      -1.43776649E-11
  -7.67999983      -1.34260329E-11
  -7.55999994      -9.49715914E-12
  -7.44000006      -2.88830288E-12
  -7.32000017       5.43841708E-12
  -7.19999981       1.39950577E-11
  -7.07999992       2.10600391E-11
  -6.96000004       2.50548852E-11
  -6.84000015       2.49066046E-11
  -6.71999979       2.02970939E-11
  -6.59999990       1.17332368E-11
  -6.48000002       4.25307820E-13
  -6.36000013      -1.19808755E-11
  -6.23999977      -2.37314803E-11
  -6.11999989      -3.32548190E-11
  -6.00000000      -3.93408535E-11
  -5.88000011      -4.11857076E-11
  -5.76000023      -3.83323512E-11
  -5.63999987      -3.05795528E-11
  -5.51999998      -1.79412128E-11
  -5.40000010      -7.12122581E-13
  -5.28000021       2.03572888E-11
  -5.15999985       4.38363547E-11
  -5.03999996       6.74442655E-11
  -4.92000008       8.80490264E-11
  -4.80000019       1.01915025E-10
  -4.67999983       1.05208287E-10
  -4.55999994       9.46843159E-11
  -4.44000006       6.84138163E-11
  -4.32000017       2.63745293E-11
  -4.19999981      -2.92362905E-11
  -4.07999992      -9.40395956E-11
  -3.96000004      -1.61835489E-10
  -3.83999991      -2.25174643E-10
  -3.72000003      -2.75983680E-10
  -3.59999990      -3.06104198E-10
  -3.48000002      -3.07673387E-10
  -3.35999990      -2.73365275E-10
  -3.24000001      -1.96589467E-10
  -3.11999989      -7.17708323E-11
  -3.00000000       1.05205886E-10
  -2.88000011       3.36395495E-10
  -2.75999999       6.21159624E-10
  -2.64000010       9.55712842E-10
  -2.51999998       1.33308020E-09
  -2.40000010       1.74363268E-09
  -2.27999997       2.17622764E-09
  -2.16000009       2.61980171E-09
  -2.03999996       3.06511416E-09
  -1.91999996       3.50624507E-09
  -1.79999995       3.94148492E-09
  -1.67999995       4.37337588E-09
  -1.55999994       4.80788964E-09
  -1.44000006       5.25293986E-09
  -1.32000005       5.71663428E-09
  -1.20000005       6.20573193E-09
  -1.08000004       6.72472078E-09
 -0.959999979       7.27574090E-09
 -0.839999974       7.85932119E-09
 -0.720000029       8.47561932E-09
 -0.600000024       9.12573128E-09
 -0.479999989       9.81257919E-09
 -0.360000014       1.05410765E-08
 -0.239999995       1.13175407E-08
 -0.119999997       1.21485986E-08
  -1.11022302E-15   1.30400668E-08
  0.119999997       1.39962948E-08
  0.239999995       1.50202979E-08
  0.360000014       1.61146936E-08
  0.479999989       1.72831278E-08
  0.600000024       1.85316651E-08
  0.720000029       1.98695993E-08
  0.839999974       2.13093507E-08
  0.959999979       2.28654784E-08
   1.08000004       2.45531133E-08
   1.20000005       2.63863988E-08
   1.32000005       2.83773698E-08
   1.44000006       3.05354959E-08
   1.55999994       3.28678311E-08
   1.67999995       3.53793403E-08
   1.79999995       3.80730611E-08
   1.91999996       4.09499066E-08
   2.03999996       4.40082708E-08
   2.16000009       4.72439758E-08
   2.27999997       5.06511526E-08
   2.40000010       5.42244685E-08
   2.51999998       5.79626480E-08
   2.64000010       6.18724485E-08
   2.75999999       6.59720953E-08
   2.88000011       7.02928489E-08
   3.00000000       7.48780167E-08
   3.11999989       7.97792623E-08
   3.24000001       8.50513260E-08
   3.35999990       9.07464468E-08
   3.48000002       9.69102985E-08
   3.59999990       1.03580376E-07
   3.72000003       1.10787205E-07
   3.83999991       1.18557402E-07
   3.96000004       1.26917030E-07
   4.07999992       1.35893629E-07
   4.19999981       1.45515756E-07
   4.32000017       1.55810199E-07
   4.44000006       1.66797761E-07
   4.55999994       1.78489799E-07
   4.67999983       1.90887405E-07
   4.80000019       2.03984186E-07
   4.92000008       2.17772865E-07
   5.03999996       2.32253797E-07
   5.15999985       2.47443182E-07
   5.28000021       2.63378325E-07
   5.40000010       2.80117860E-07
   5.51999998       2.97737586E-07
   5.63999987       3.16321859E-07
   5.76000023       3.35954724E-07
   5.88000011       3.56712405E-07
   6.00000000       3.78659735E-07
   6.11999989       4.01851793E-07
   6.23999977       4.26338744E-07
   6.36000013       4.52172742E-07
   6.48000002       4.79413416E-07
   6.59999990       5.08130313E-07
   6.71999979       5.38401025E-07
   6.84000015       5.70306497E-07
   6.96000004       6.03924605E-07
   7.07999992       6.39325663E-07
   7.19999981       6.76570835E-07
   7.32000017       7.15714975E-07
   7.44000006       7.56813165E-07
   7.55999994       7.99928216E-07
   7.67999983       8.45137208E-07
   7.80000019       8.92534672E-07
   7.92000008       9.42230940E-07
   8.03999996       9.94346351E-07
   8.15999985       1.04900334E-06
   8.27999973       1.10631879E-06
   8.39999962       1.16639853E-06
   8.52000046       1.22933727E-06
   8.64000034       1.29522198E-06
   8.76000023       1.36413973E-06
   8.88000011       1.43618581E-06
   9.00000000       1.51147083E-06
   9.11999989       1.59012359E-06
   9.23999977       1.67229030E-06
   9.35999966       1.75812886E-06
   9.47999954       1.84780129E-06
   9.60000038       1.94146469E-06
   9.72000027       2.03926447E-06
   9.84000015       2.14133070E-06
   9.96000004       2.24777773E-06
   10.0799999       2.35870789E-06
   10.1999998       2.47421713E-06
   10.3199997       2.59440344E-06
   10.4399996       2.71937188E-06
   10.5600004       2.84924045E-06
   10.6800003       2.98414329E-06
   10.8000002       3.12423026E-06
   10.9200001       3.26966483E-06
   11.0400000       3.42062117E-06
   11.1599998       3.57727663E-06
   11.2799997       3.73980902E-06
   11.3999996       3.90838886E-06
   11.5200005       4.08317783E-06
   11.6400003       4.26432462E-06
   11.7600002       4.45196747E-06
   11.8800001       4.64623554E-06
   12.0000000       4.84725206E-06
   12.1199999       5.05514254E-06
   12.2399998       5.27003658E-06
   12.3599997       5.49207016E-06
   12.4799995       5.72138561E-06
   12.6000004       5.95812753E-06
   12.7200003       6.20244009E-06
   12.8400002       6.45446153E-06
   12.9600000       6.71432008E-06
   13.0799999       6.98213671E-06
   13.1999998       7.25802465E-06
   13.3199997       7.54209623E-06
   13.4399996       7.83445921E-06
   13.5600004       8.13522638E-06
   13.6800003       8.44450733E-06
   13.8000002       8.76240483E-06
   13.9200001       9.08900529E-06
   14.0400000       9.42438328E-06
   14.1599998       9.76858792E-06
   14.2799997       1.01216592E-05
   14.3999996       1.04836217E-05
   14.5200005       1.08545046E-05
   14.6400003       1.12343405E-05
   14.7600002       1.16231740E-05
   14.8800001       1.20210570E-05
   15.0000000       1.24280459E-05
   15.1199999       1.28441861E-05
   15.2399998       1.32695095E-05
   15.3599997       1.37040197E-05
   15.4799995       1.41476894E-05
   15.6000004       1.46004659E-05
   15.7200003       1.50622636E-05
   15.8400002       1.55329799E-05
   15.9600000       1.60124946E-05
   16.0799999       1.65006786E-05
   16.2000008       1.69973955E-05
   16.3199997       1.75024998E-05
   16.4400005       1.80158349E-05
   16.5599995       1.85372301E-05
   16.6800003       1.90665014E-05
   16.7999992       1.96034380E-05
   16.9200001       2.01478269E-05
   17.0400009       2.06994300E-05
   17.1599998       2.12580089E-05
   17.2800007       2.18233181E-05
   17.3999996       2.23951047E-05
   17.5200005       2.29730995E-05
   17.6399994       2.35570205E-05
   17.7600002       2.41465605E-05
   17.8799992       2.47413900E-05
   18.0000000       2.53411563E-05
   18.1200008       2.59454937E-05
   18.2399998       2.65540311E-05
   18.3600006       2.71663830E-05
   18.4799995       2.77821582E-05
   18.6000004       2.84009438E-05
   18.7199993       2.90222852E-05
   18.8400002       2.96456838E-05
   18.9599991       3.02705903E-05
   19.0799999       3.08964081E-05
   19.2000008       3.15225225E-05
   19.3199997       3.21483167E-05
   19.4400005       3.27731905E-05
   19.5599995       3.33965581E-05
   19.6800003       3.40178667E-05
   19.7999992       3.46365669E-05
   19.9200001       3.52520801E-05
   20.0400009       3.58637990E-05
   20.1599998       3.64710540E-05
   20.2800007       3.70731286E-05
   20.3999996       3.76692733E-05
   20.5200005       3.82587241E-05
   20.6399994       3.88407207E-05
   20.7600002       3.94145209E-05
   20.8799992       3.99794189E-05
   21.0000000       4.05347091E-05
   21.1200008       4.10796965E-05
   21.2399998       4.16136536E-05
   21.3600006       4.21358127E-05
   21.4799995       4.26453553E-05
   21.6000004       4.31414192E-05
   21.7199993       4.36231057E-05
   21.8400002       4.40895019E-05
   21.9599991       4.45397054E-05
   22.0799999       4.49728323E-05
   22.2000008       4.53880129E-05
   22.3199997       4.57843962E-05
   22.4400005       4.61611307E-05
   22.5599995       4.65173398E-05
   22.6800003       4.68521393E-05
   22.7999992       4.71646235E-05
   22.9200001       4.74538792E-05
   23.0400009       4.77189860E-05
   23.1599998       4.79590490E-05
   23.2800007       4.81731768E-05
   23.3999996       4.83604927E-05
   23.5200005       4.85201308E-05
   23.6399994       4.86512217E-05
   23.7600002       4.87529069E-05
   23.8799992       4.88243386E-05
   24.0000000       4.88646765E-05
   24.1200008       4.88731021E-05
   24.2399998       4.88488186E-05
   24.3600006       4.87910402E-05
   24.4799995       4.86989848E-05
   24.6000004       4.85718592E-05
   24.7199993       4.84088669E-05
   24.8400002       4.82091928E-05
   24.9599991       4.79720111E-05
   25.0799999       4.76964888E-05
   25.2000008       4.73817927E-05
   25.3199997       4.70270752E-05
   25.4400005       4.66314959E-05
   25.5599995       4.61942109E-05
   25.6800003       4.57143979E-05
   25.7999992       4.51912674E-05
   25.9200001       4.46240847E-05
   26.0400009       4.40121621E-05
   26.1599998       4.33548630E-05
   26.2800007       4.26515944E-05
   26.3999996       4.19017706E-05
   26.5200005       4.11048022E-05
   26.6399994       4.02600526E-05
   26.7600002       3.93668633E-05
   26.8799992       3.84245395E-05
   27.0000000       3.74323754E-05
   27.1200008       3.63896870E-05
   27.2399998       3.52958232E-05
   27.3600006       3.41501982E-05
   27.4799995       3.29522663E-05
   27.6000004       3.17015656E-05
   27.7199993       3.03976649E-05
   27.8400002       2.90401767E-05
   27.9599991       2.76287192E-05
   28.0799999       2.61629066E-05
   28.2000008       2.46423297E-05
   28.3199997       2.30665573E-05
   28.4400005       2.14351348E-05
   28.5599995       1.97476020E-05
   28.6800003       1.80035040E-05
   28.7999992       1.62024116E-05
   28.9200001       1.43439302E-05
   29.0400009       1.24277040E-05
   29.1599998       1.04534092E-05
   29.2800007       8.42074223E-06
   29.3999996       6.32940419E-06
   29.5200005       4.17909359E-06
   29.6399994       1.96950737E-06
   29.7600002      -2.99658723E-07
   29.8799992      -2.62869776E-06
   30.0000000      -5.01788509E-06
   30.1200008      -7.46747583E-06
   30.2399998      -9.97770712E-06
   30.3600006      -1.25488004E-05
   30.4799995      -1.51809691E-05
   30.6000004      -1.78744212E-05
   30.7199993      -2.06293516E-05
   30.8400002      -2.34459421E-05
   30.9599991      -2.63243528E-05
   31.0799999      -2.92647237E-05
   31.2000008      -3.22671804E-05
   31.3199997      -3.53318501E-05
   31.4400005      -3.84588457E-05
   31.5599995      -4.16482981E-05
   31.6800003      -4.49003419E-05
   31.7999992      -4.82151227E-05
   31.9200001      -5.15927677E-05
   32.0400009      -5.50333934E-05
   32.1599998      -5.85371090E-05
   32.2799988      -6.21040017E-05
   32.4000015      -6.57341589E-05
   32.5200005      -6.94276823E-05
   32.6399994      -7.31846958E-05
   32.7599983      -7.70053230E-05
   32.8800011      -8.08897312E-05
   33.0000000      -8.48380660E-05
   33.1199989      -8.88504364E-05
   33.2400017      -9.29269154E-05
   33.3600006      -9.70675464E-05
   33.4799995      -1.01272279E-04
   33.5999985      -1.05541054E-04
   33.7200012      -1.09873807E-04
   33.8400002      -1.14270464E-04
   33.9599991      -1.18730990E-04
   34.0800018      -1.23255362E-04
   34.2000008      -1.27843610E-04
   34.3199997      -1.32495799E-04
   34.4399986      -1.37211973E-04
   34.5600014      -1.41992146E-04
   34.6800003      -1.46836363E-04
   34.7999992      -1.51744549E-04
   34.9199982      -1.56716691E-04
   35.0400009      -1.61752672E-04
   35.1599998      -1.66852406E-04
   35.2799988      -1.72015774E-04
   35.4000015      -1.77242720E-04
   35.5200005      -1.82533142E-04
   35.6399994      -1.87887010E-04
   35.7599983      -1.93304164E-04
   35.8800011      -1.98784517E-04
   36.0000000      -2.04327909E-04
   36.1199989      -2.09934195E-04
   36.2400017      -2.15603155E-04
   36.3600006      -2.21334645E-04
   36.4799995      -2.27128490E-04
   36.5999985      -2.32984487E-04
   36.7200012      -2.38902416E-04
   36.8400002      -2.44882016E-04
   36.9599991      -2.50922923E-04
   37.0800018      -2.57024803E-04
   37.2000008      -2.63187219E-04
   37.3199997      -2.69409735E-04
   37.4399986      -2.75691767E-04
   37.5600014      -2.82032939E-04
   37.6800003      -2.88432668E-04
   37.7999992      -2.94890488E-04
   37.9199982      -3.01405729E-04
   38.0400009      -3.07977898E-04
   38.1599998      -3.14606354E-04
   38.2799988      -3.21290456E-04
   38.4000015      -3.28029477E-04
   38.5200005      -3.34822573E-04
   38.6399994      -3.41668900E-04
   38.7599983      -3.48567468E-04
   38.8800011      -3.55517288E-04
   39.0000000      -3.62517225E-04
   39.1199989      -3.69566143E-04
   39.2400017      -3.76662996E-04
   39.3600006      -3.83806560E-04
   39.4799995      -3.90995701E-04
   39.5999985      -3.98229080E-04
   39.7200012      -4.05505329E-04
   39.8400002      -4.12822847E-04
   39.9599991      -4.20180033E-04
   40.0800018      -4.27575113E-04
   40.2000008      -4.35006281E-04
   40.3199997      -4.42471559E-04
   40.4399986      -4.49968968E-04
   40.5600014      -4.57496528E-04
   40.6800003      -4.65052115E-04
   40.7999992      -4.72633546E-04
   40.9199982      -4.80238581E-04
   41.0400009      -4.87864832E-04
   41.1599998      -4.95509768E-04
   41.2799988      -5.03170886E-04
   41.4000015      -5.10845392E-04
   41.5200005      -5.18530491E-04
   41.6399994      -5.26222924E-04
   41.7599983      -5.33919665E-04
   41.8800011      -5.41617395E-04
   42.0000000      -5.49312914E-04
   42.1199989      -5.57002553E-04
   42.2400017      -5.64682996E-04
   42.3600006      -5.72350458E-04
   42.4799995      -5.80001215E-04
   42.5999985      -5.87631250E-04
   42.7200012      -5.95236721E-04
   42.8400002      -6.02813321E-04
   42.9599991      -6.10356685E-04
   43.0800018      -6.17862563E-04
   43.2000008      -6.25326182E-04
   43.3199997      -6.32743002E-04
   43.4399986      -6.40108134E-04
   43.5600014      -6.47416862E-04
   43.6800003      -6.54664182E-04
   43.7999992      -6.61845203E-04
   43.9199982      -6.68954686E-04
   44.0400009      -6.75987394E-04
   44.1599998      -6.82937796E-04
   44.2799988      -6.89800305E-04
   44.4000015      -6.96569099E-04
   44.5200005      -7.03238475E-04
   44.6399994      -7.09802436E-04
   44.7599983      -7.16254930E-04
   44.8800011      -7.22590019E-04
   45.0000000      -7.28801533E-04
   45.1199989      -7.34883535E-04
   45.2400017      -7.40829681E-04
   45.3600006      -7.46633799E-04
   45.4799995      -7.52289372E-04
   45.5999985      -7.57790229E-04
   45.7200012      -7.63129850E-04
   45.8400002      -7.68301601E-04
   45.9599991      -7.73299020E-04
   46.0800018      -7.78115587E-04
   46.2000008      -7.82744610E-04
   46.3199997      -7.87179568E-04
   46.4399986      -7.91414001E-04
   46.5600014      -7.95441098E-04
   46.6800003      -7.99254514E-04
   46.7999992      -8.02847615E-04
   46.9199982      -8.06213997E-04
   47.0400009      -8.09347024E-04
   47.1599998      -8.12240294E-04
   47.2799988      -8.14887579E-04
   47.4000015      -8.17282591E-04
   47.5200005      -8.19419045E-04
   47.6399994      -8.21291120E-04
   47.7599983      -8.22892820E-04
   47.8800011      -8.24218499E-04
   48.0000000      -8.25262454E-04
   48.1199989      -8.26019212E-04
   48.2400017      -8.26483360E-04
   48.3600006      -8.26649426E-04
   48.4799995      -8.26512289E-04
   48.5999985      -8.26067233E-04
   48.7200012      -8.25309369E-04
   48.8400002      -8.24234448E-04
   48.9599991      -8.22838163E-04
   49.0800018      -8.21116788E-04
   49.2000008      -8.19066423E-04
   49.3199997      -8.16683751E-04
   49.4399986      -8.13965453E-04
   49.5600014      -8.10908678E-04
   49.6800003      -8.07510747E-04
   49.7999992      -8.03769159E-04
   49.9199982      -7.99681933E-04
   50.0400009      -7.95247382E-04
   50.1599998      -7.90463935E-04
   50.2799988      -7.85330369E-04
   50.4000015      -7.79846159E-04
   50.5200005      -7.74010725E-04
   50.6399994      -7.67824124E-04
   50.7599983      -7.61286821E-04
   50.8800011      -7.54399574E-04
   51.0000000      -7.47163431E-04
   51.1199989      -7.39580137E-04
   51.2400017      -7.31651322E-04
   51.3600006      -7.23379257E-04
   51.4799995      -7.14766618E-04
   51.5999985      -7.05816317E-04
   51.7200012      -6.96531672E-04
   51.8400002      -6.86916639E-04
   51.9599991      -6.76975411E-04
   52.0800018      -6.66712818E-04
   52.2000008      -6.56133983E-04
   52.3199997      -6.45244494E-04
   52.4399986      -6.34050171E-04
   52.5600014      -6.22557185E-04
   52.6800003      -6.10772171E-04
   52.7999992      -5.98702172E-04
   52.9199982      -5.86354639E-04
   53.0400009      -5.73737547E-04
   53.1599998      -5.60859218E-04
   53.2799988      -5.47728501E-04
   53.4000015      -5.34354476E-04
   53.5200005      -5.20746573E-04
   53.6399994      -5.06914512E-04
   53.7599983      -4.92868305E-04
   53.8800011      -4.78618371E-04
   54.0000000      -4.64175362E-04
   54.1199989      -4.49550367E-04
   54.2400017      -4.34754649E-04
   54.3600006      -4.19799791E-04
   54.4799995      -4.04697697E-04
   54.5999985      -3.89460445E-04
   54.7200012      -3.74100433E-04
   54.8400002      -3.58630175E-04
   54.9599991      -3.43062566E-04
   55.0800018      -3.27410584E-04
   55.2000008      -3.11687443E-04
   55.3199997      -2.95906531E-04
   55.4399986      -2.80081324E-04
   55.5600014      -2.64225499E-04
   55.6800003      -2.48352822E-04
   55.7999992      -2.32477119E-04
   55.9199982      -2.16612243E-04
   56.0400009      -2.00772105E-04
   56.1599998      -1.84970588E-04
   56.2799988      -1.69221559E-04
   56.4000015      -1.53538916E-04
   56.5200005      -1.37936426E-04
   56.6399994      -1.22427839E-04
   56.7599983      -1.07026797E-04
   56.8800011      -9.17468715E-05
   57.0000000      -7.66015146E-05
   57.1199989      -6.16040707E-05
   57.2400017      -4.67677455E-05
   57.3600006      -3.21055995E-05
   57.4799995      -1.76305020E-05
   57.5999985      -3.35509094E-06
   57.7200012       1.07082615E-05
   57.8400002       2.45474985E-05
   57.9599991       3.81509053E-05
   58.0800018       5.15071151E-05
   58.2000008       6.46051049E-05
   58.3199997       7.74341752E-05
   58.4399986       8.99839724E-05
   58.5600014       1.02244434E-04
   58.6800003       1.14205912E-04
   58.7999992       1.25859166E-04
   58.9199982       1.37195399E-04
   59.0400009       1.48206294E-04
   59.1599998       1.58883937E-04
   59.2799988       1.69220817E-04
   59.4000015       1.79209877E-04
   59.5200005       1.88844409E-04
   59.6399994       1.98118243E-04
   59.7599983       2.07025732E-04
   59.8800011       2.15561842E-04
   60.0000000       2.23722222E-04
   60.1199989       2.31503043E-04
   60.2400017       2.38901092E-04
   60.3600006       2.45913572E-04
   60.4799995       2.52538099E-04
   60.5999985       2.58772605E-04
   60.7200012       2.64615548E-04
   60.8400002       2.70065910E-04
   60.9599991       2.75123282E-04
   61.0800018       2.79787870E-04
   61.2000008       2.84060690E-04
   61.3199997       2.87943170E-04
   61.4399986       2.91437347E-04
   61.5600014       2.94545665E-04
   61.6800003       2.97270977E-04
   61.7999992       2.99616455E-04
   61.9199982       3.01585882E-04
   62.0400009       3.03183449E-04
   62.1599998       3.04413959E-04
   62.2799988       3.05282651E-04
   62.4000015       3.05795344E-04
   62.5200005       3.05958180E-04
   62.6399994       3.05777707E-04
   62.7599983       3.05260910E-04
   62.8800011       3.04415007E-04
   63.0000000       3.03247798E-04
   63.1199989       3.01767315E-04
   63.2400017       2.99982086E-04
   63.3600006       2.97901017E-04
   63.4799995       2.95533246E-04
   63.5999985       2.92888202E-04
   63.7200012       2.89975520E-04
   63.8400002       2.86805065E-04
   63.9599991       2.83386908E-04
   64.0800018       2.79731175E-04
   64.1999969       2.75848375E-04
   64.3199997       2.71749188E-04
   64.4400024       2.67444440E-04
   64.5599976       2.62945163E-04
   64.6800003       2.58262415E-04
   64.8000031       2.53407372E-04
   64.9199982       2.48391269E-04
   65.0400009       2.43225237E-04
   65.1600037       2.37920540E-04
   65.2799988       2.32488426E-04
   65.4000015       2.26940218E-04
   65.5199966       2.21287206E-04
   65.6399994       2.15540655E-04
   65.7600021       2.09711769E-04
   65.8799973       2.03811549E-04
   66.0000000       1.97850910E-04
   66.1200027       1.91840634E-04
   66.2399979       1.85791389E-04
   66.3600006       1.79713767E-04
   66.4800034       1.73618173E-04
   66.5999985       1.67514881E-04
   66.7200012       1.61413933E-04
   66.8399963       1.55325048E-04
   66.9599991       1.49257685E-04
   67.0800018       1.43221027E-04
   67.1999969       1.37223949E-04
   67.3199997       1.31275156E-04
   67.4400024       1.25383071E-04
   67.5599976       1.19555938E-04
   67.6800003       1.13801667E-04
   67.8000031       1.08127839E-04
   67.9199982       1.02541620E-04
   68.0400009       9.70498731E-05
   68.1600037       9.16590725E-05
   68.2799988       8.63754467E-05
   68.4000015       8.12049620E-05
   68.5199966       7.61532938E-05
   68.6399994       7.12258043E-05
   68.7600021       6.64274703E-05
   68.8799973       6.17628757E-05
   69.0000000       5.72361532E-05
   69.1200027       5.28510318E-05
   69.2399979       4.86108656E-05
   69.3600006       4.45186961E-05
   69.4800034       4.05772516E-05
   69.5999985       3.67889734E-05
   69.7200012       3.31559677E-05
   69.8399963       2.96799899E-05
   69.9599991       2.63624261E-05
   70.0800018       2.32042967E-05
   70.1999969       2.02063093E-05
   70.3199997       1.73688804E-05
   70.4400024       1.46921657E-05
   70.5599976       1.21760622E-05
   70.6800003       9.82017900E-06
   70.8000031       7.62381160E-06
   70.9199982       5.58592274E-06
   71.0400009       3.70515363E-06
   71.1600037       1.97986333E-06
   71.2799988       4.08183155E-07
   71.4000015      -1.01193586E-06
   71.5199966      -2.28270278E-06
   71.6399994      -3.40649967E-06
   71.7600021      -4.38591633E-06
   71.8799973      -5.22379196E-06
   72.0000000      -5.92323340E-06
   72.1200027      -6.48760806E-06
   72.2399979      -6.92049935E-06
   72.3600006      -7.22563982E-06
   72.4800034      -7.40685209E-06
   72.5999985      -7.46800060E-06
   72.7200012      -7.41298572E-06