  -30.0000000       0.00000000    
  -29.8799992       0.00000000    
  -29.7600002       0.00000000    
  -29.6399994       0.00000000    
  -29.5200005       0.00000000    
  -29.3999996       0.00000000    
  -29.2800007      -2.10194770E-44
  -29.1599998       1.17709071E-43
  -29.0400009       2.33736584E-42
  -28.9200001       1.11809604E-41
  -28.7999992       2.33442311E-41
  -28.6800003      -1.09805748E-41
  -28.5599995      -2.47631859E-40
  -28.4400005      -9.57456794E-40
  -28.3199997      -2.34652613E-39
  -28.2000008      -4.02650922E-39
  -28.0799999      -3.96124515E-39
  -27.9599991       3.20743346E-39
  -27.8400002       2.76731476E-38
  -27.7199993       8.21582915E-38
  -27.6000004       1.67640328E-37
  -27.4799995       2.38595300E-37
  -27.3600006       1.54439637E-37
  -27.2399998      -3.37741808E-37
  -27.1200008      -1.49862983E-36
  -27.0000000      -3.28122990E-36
  -26.8799992      -4.83605221E-36
  -26.7600002      -4.12805398E-36
  -26.6399994       1.76453816E-36
  -26.5200005       1.50799395E-35
  -26.3999996       3.44807850E-35
  -26.2800007       5.19223661E-35
  -26.1599998       5.16022677E-35
  -26.0400009       1.37046355E-35
  -25.9200001      -7.57075530E-35
  -25.7999992      -2.10488610E-34
  -25.6800003      -3.51535029E-34
  -25.5599995      -4.23189675E-34
  -25.4400005      -3.25968992E-34
  -25.3199997       3.15224250E-35
  -25.2000008       6.84410601E-34
  -25.0799999       1.55564977E-33
  -24.9599991       2.40668822E-33
  -24.8400002       2.81723274E-33
  -24.7199993       2.22808930E-33
  -24.6000004       8.87734941E-35
  -24.4799995      -3.86170025E-33
  -24.3600006      -9.20704848E-33
  -24.2399998      -1.44858255E-32
  -24.1200008      -1.70848377E-32
  -24.0000000      -1.36882982E-32
  -23.8799992      -1.47508158E-33
  -23.7600002       2.00541805E-32
  -23.6399994       4.72034480E-32
  -23.5200005       7.11695120E-32
  -23.3999996       7.91956111E-32
  -23.2800007       5.84059238E-32
  -23.1599998       1.82713736E-33
  -23.0400009      -8.53183850E-32
  -22.9200001      -1.82054641E-31
  -22.7999992      -2.53840764E-31
  -22.6800003      -2.61944199E-31
  -22.5599995      -1.78447366E-31
  -22.4400005      -1.93562832E-33
  -22.3199997       2.33274644E-31
  -22.2000008       4.60868406E-31
  -22.0799999       6.01543529E-31
  -21.9599991       5.92799215E-31
  -21.8400002       4.18185783E-31
  -21.7199993       1.21474328E-31
  -21.6000004      -2.05486240E-31
  -21.4799995      -4.62120590E-31
  -21.3600006      -5.92272923E-31
  -21.2399998      -6.25668106E-31
  -21.1200008      -6.79547078E-31
  -21.0000000      -9.03796417E-31
  -20.8799992      -1.37752421E-30
  -20.7600002      -1.99489516E-30
  -20.6399994      -2.39993610E-30
  -20.5200005      -2.03032945E-30
  -20.3999996      -3.01177851E-31
  -20.2800007       3.09520377E-30
  -20.1599998       7.86201768E-30
  -20.0400009       1.28808241E-29
  -19.9200001       1.62494576E-29
  -19.7999992       1.56695240E-29
  -19.6800003       9.17205855E-30
  -19.5599995      -3.96707940E-30
  -19.4400005      -2.23962391E-29
  -19.3199997      -4.22808067E-29
  -19.2000008      -5.76234929E-29
  -19.0799999      -6.14620940E-29
  -18.9599991      -4.78413457E-29
  -18.8400002      -1.41579699E-29
  -18.7199993       3.67790779E-29
  -18.6000004       9.57500868E-29
  -18.4799995       1.47864186E-28
  -18.3600006       1.75357221E-28
  -18.2399998       1.62192311E-28
  -18.1200008       9.95350628E-29
  -18.0000000      -9.39788587E-30
  -17.8799992      -1.46865868E-28
  -17.7600002      -2.81988620E-28
  -17.6399994      -3.76621041E-28
  -17.5200005      -3.95038035E-28
  -17.3999996      -3.15290476E-28
  -17.2800007      -1.38955773E-28
  -17.1599998       1.04317273E-28
  -17.0400009       3.60243535E-28
  -16.9200001       5.62079332E-28
  -16.7999992       6.49492237E-28
  -16.6800003       5.89210292E-28
  -16.5599995       3.90618845E-28
  -16.4400005       1.09417160E-28
  -16.3199997      -1.65173289E-28
  -16.2000008      -3.39442577E-28
  -16.0799999      -3.54107113E-28
  -15.9600000      -2.20831990E-28
  -15.8400002      -4.05791062E-29
  -15.7200003       1.09444844E-29
  -15.6000004      -2.61559583E-28
  -15.4799995      -9.82421391E-28
  -15.3599997      -2.10076586E-27
  -15.2399998      -3.30990898E-27
  -15.1199999      -4.03601153E-27
  -15.0000000      -3.53608133E-27
  -14.8800001      -1.12166170E-27
  -14.7600002       3.51704120E-27
  -14.6400003       9.96364680E-27
  -14.5200005       1.68288791E-26
  -14.3999996       2.17511539E-26
  -14.2799997       2.17685027E-26
  -14.1599998       1.41067913E-26
  -14.0400000      -2.70299395E-27
  -13.9200001      -2.76256840E-26
  -13.8000002      -5.62316323E-26
  -13.6800003      -8.05734887E-26
  -13.5600004      -9.02271247E-26
  -13.4399996      -7.46702453E-26
  -13.3199997      -2.67970102E-26
  -13.1999998       5.30975250E-26
  -13.0799999       1.53970438E-25
  -12.9600000       2.52694754E-25
  -12.8400002       3.16050835E-25
  -12.7200003       3.06868544E-25
  -12.6000004       1.94193655E-25
  -12.4799995      -3.39590537E-26
  -12.3599997      -3.58123401E-25
  -12.2399998      -7.19186146E-25
  -12.1199999      -1.01892874E-24
  -12.0000000      -1.13304092E-24
  -11.8800001      -9.38183893E-25
  -11.7600002      -3.51106187E-25
  -11.6400003       6.26734557E-25
  -11.5200005       1.87020402E-24
  -11.3999996       3.11166874E-24
  -11.2799997       3.95733138E-24
  -11.1599998       3.95001036E-24
  -11.0400000       2.68091243E-24
  -10.9200001      -6.05684383E-26
  -10.8000002      -4.12648919E-24
  -10.6800003      -8.88298085E-24
  -10.5600004      -1.31701969E-23
  -10.4399996      -1.54039149E-23
  -10.3199997      -1.38569776E-23
  -10.1999998      -7.12368298E-24
  -10.0799999       5.28320067E-24
  -9.96000004       2.23183265E-23
  -9.84000015       4.09518301E-23
  -9.72000027       5.61015030E-23
  -9.60000038       6.11684513E-23
  -9.47999954       4.93245284E-23
  -9.35999966       1.55442738E-23
  -9.23999977      -4.08628308E-23
  -9.11999989      -1.13752809E-22
  -9.00000000      -1.88490652E-22
  -8.88000011      -2.42116280E-22
  -8.76000023      -2.46259580E-22
  -8.64000034      -1.73349142E-22
  -8.52000046      -5.89203721E-24
  -8.39999962       2.52513618E-22
  -8.27999973       5.67059472E-22
  -8.15999985       8.66260555E-22
  -8.03999996       1.04541877E-21
  -7.92000008       9.82696525E-22
  -7.80000019       5.69345831E-22
  -7.67999983      -2.48143733E-22
  -7.55999994      -1.42130087E-21
  -7.44000006      -2.76106265E-21
  -7.32000017      -3.92415250E-21
  -7.19999981      -4.44211579E-21
  -7.07999992      -3.80616052E-21
  -6.96000004      -1.60979081E-21
  -6.84000015       2.26645993E-21
  -6.71999979       7.46570893E-21
  -6.59999990       1.30194036E-20
  -6.48000002       1.73376782E-20
  -6.36000013       1.83937826E-20
  -6.23999977       1.41440518E-20
  -6.11999989       3.17066871E-21
  -6.00000000      -1.45432730E-20
  -5.88000011      -3.68854763E-20
  -5.76000023      -5.91882948E-20
  -5.63999987      -7.43936452E-20
  -5.51999998      -7.40566724E-20
  -5.40000010      -5.02954118E-20
  -5.28000021       1.45036073E-21
  -5.15999985       7.93107815E-20
  -5.03999996       1.72325270E-19
  -4.92000008       2.59282141E-19
  -4.80000019       3.10162744E-19
  -4.67999983       2.91028790E-19
  -4.55999994       1.72537287E-19
  -4.44000006      -5.87606230E-20
  -4.32000017      -3.88444455E-19
  -4.19999981      -7.64905338E-19
  -4.07999992      -1.09680830E-18
  -3.96000004      -1.26138136E-18
  -3.83999991      -1.12622471E-18
  -3.72000003      -5.84542328E-19
  -3.59999990       4.00388788E-19
  -3.48000002       1.75043577E-18
  -3.35999990       3.24072882E-18
  -3.24000001       4.49624858E-18
  -3.11999989       5.03127107E-18
  -3.00000000       4.34009756E-18
  -2.88000011       2.03630112E-18
  -2.75999999      -1.97775741E-18
  -2.64000010      -7.34660626E-18
  -2.51999998      -1.31527053E-17
  -2.40000010      -1.79198158E-17
  -2.27999997      -1.97791408E-17
  -2.16000009      -1.68246965E-17
  -2.03999996      -7.64212812E-18
  -1.91999996       8.06132919E-18
  -1.79999995       2.88590610E-17
  -1.67999995       5.12230899E-17
  -1.55999994       6.95621639E-17
  -1.44000006       7.68565536E-17
  -1.32000005       6.59770242E-17
  -1.20000005       3.16232803E-17
  -1.08000004      -2.73833079E-17
 -0.959999979      -1.05930543E-16
 -0.839999974      -1.91220772E-16
 -0.720000029      -2.62869740E-16
 -0.600000024      -2.95118640E-16
 -0.479999989      -2.61470177E-16
 -0.360000014      -1.41537763E-16
 -0.239999995       7.07870529E-17
 -0.119999997       3.59472312E-16
  -1.11022302E-15   6.81011737E-16
  0.119999997       9.64104018E-16
  0.239999995       1.11654507E-15
  0.360000014       1.04055764E-15
  0.479999989       6.56083292E-16
  0.600000024      -7.07047716E-17
  0.720000029      -1.09889406E-15
  0.839999974      -2.29170757E-15
  0.959999979      -3.41125282E-15
   1.08000004      -4.13704063E-15
   1.20000005      -4.11328982E-15
   1.32000005      -3.02475868E-15
   1.44000006      -6.93517225E-16
   1.55999994       2.81922550E-15
   1.67999995       7.12966436E-15
   1.79999995       1.14944243E-14
   1.91999996       1.48476524E-14
   2.03999996       1.59323662E-14
   2.16000009       1.35309769E-14
   2.27999997       6.77790682E-15
   2.40000010      -4.48912343E-15
   2.51999998      -1.94081811E-14
   2.64000010      -3.58905614E-14
   2.75999999      -5.06296224E-14
   2.88000011      -5.93996220E-14
   3.00000000      -5.76848546E-14
   3.11999989      -4.16183303E-14
   3.24000001      -9.13053321E-15
   3.35999990       3.88756037E-14
   3.48000002       9.75803572E-14
   3.59999990       1.57831999E-13
   3.72000003       2.06548822E-13
   3.83999991       2.28148202E-13
   3.96000004       2.07061283E-13
   4.07999992       1.31173528E-13
   4.19999981      -4.22623955E-15
   4.32000017      -1.92662252E-13
   4.44000006      -4.13726236E-13
   4.55999994      -6.32321723E-13
   4.67999983      -8.00753344E-13
   4.80000019      -8.64207523E-13
   4.92000008      -7.69646933E-13
   5.03999996      -4.77439811E-13
   5.15999985       2.57394847E-14
   5.28000021       7.14939013E-13
   5.40000010       1.51861499E-12
   5.51999998       2.31683878E-12
   5.63999987       2.94850516E-12
   5.76000023       3.22902620E-12
   5.88000011       2.97840398E-12
   6.00000000       2.05753101E-12
   6.11999989       4.08336017E-13
   6.23999977      -1.90866680E-12
   6.36000013      -4.68728832E-12
   6.48000002      -7.56725325E-12
   6.59999990      -1.00516071E-11
   6.71999979      -1.15543989E-11
   6.84000015      -1.14788032E-11
   6.96000004      -9.32044286E-12
   7.07999992      -4.78468957E-12
   7.19999981       2.09880832E-12
   7.32000017       1.08851044E-11
   7.44000006       2.06685814E-11
   7.55999994       3.01032289E-11
   7.67999983       3.75025982E-11
   7.80000019       4.10233444E-11
   7.92000008       3.89236005E-11
   8.03999996       2.98725975E-11
   8.15999985       1.32742636E-11
   8.27999973      -1.04436546E-11
   8.39999962      -3.96287482E-11
   8.52000046      -7.13434312E-11
   8.64000034      -1.01486111E-10
   8.76000023      -1.25116376E-10
   8.88000011      -1.36979789E-10
   9.00000000      -1.32197170E-10
   9.11999989      -1.07051888E-10
   9.23999977      -5.97815686E-11
   9.35999966       8.73693739E-12
   9.47999954       9.45251169E-11
   9.60000038       1.90367000E-10
   9.72000027       2.86075746E-10
   9.84000015       3.69195563E-10
   9.96000004       4.26118224E-10
   10.0799999       4.43536680E-10
   10.1999998       4.10104867E-10
   10.3199997       3.18131715E-10
   10.4399996       1.65115213E-10
   10.5600004      -4.50760505E-11
   10.6800003      -3.01539765E-10
   10.8000002      -5.86314053E-10
   10.9200001      -8.75042261E-10
   11.0400000      -1.13831089E-09
   11.1599998      -1.34357869E-09
   11.2799997      -1.45756207E-09
   11.3999996      -1.44891243E-09
   11.5200005      -1.29102062E-09
   11.6400003      -9.64802016E-10
   11.7600002      -4.61354760E-10
   11.8800001       2.15578388E-10
   12.0000000       1.04738662E-09
   12.1199999       1.99865235E-09
   12.2399998       3.01558734E-09
   12.3599997       4.02502298E-09
   12.4799995       4.93426366E-09
   12.6000004       5.63226177E-09
   12.7200003       5.99269701E-09
   12.8400002       5.87965010E-09
   12.9600000       5.15650989E-09
   13.0799999       3.69862785E-09
   13.1999998       1.40988099E-09
   13.3199997      -1.75720738E-09
   13.4399996      -5.77880943E-09
   13.5600004      -1.05364268E-08
   13.6800003      -1.57954734E-08
   13.8000002      -2.11892051E-08
   13.9200001      -2.62119233E-08
   14.0400000      -3.02255678E-08
   14.1599998      -3.24834630E-08
   14.2799997      -3.21741460E-08
   14.3999996      -2.84865855E-08
   14.5200005      -2.06961452E-08
   14.6400003      -8.26782909E-09
   14.7600002       9.02934616E-09
   14.8800001       3.10060848E-08
   15.0000000       5.69464618E-08
   15.1199999       8.55253077E-08
   15.2399998       1.14764134E-07
   15.3599997       1.42040051E-07
   15.4799995       1.64160511E-07
   15.6000004       1.77512831E-07
   15.7200003       1.78293064E-07
   15.8400002       1.62811887E-07
   15.9600000       1.27868262E-07
   16.0799999       7.11736021E-08
   16.2000008      -8.19775714E-09
   16.3199997      -1.09363448E-07
   16.4400005      -2.29228888E-07
   16.5599995      -3.62163092E-07
   16.6800003      -4.99793032E-07
   16.7999992      -6.30951831E-07
   16.9200001      -7.41810084E-07
   17.0400009      -8.16209877E-07
   17.1599998      -8.36208585E-07
   17.2800007      -7.82827158E-07
   17.3999996      -6.36980872E-07
   17.5200005      -3.80556742E-07
   17.6399994       2.41219800E-09
   17.7600002       5.24537086E-07
   17.8799992       1.19389824E-06
   18.0000000       2.01297894E-06
   18.1200008       2.97778138E-06
   18.2399998       4.07719472E-06
   18.3600006       5.29267436E-06
   18.4799995       6.59827765E-06
   18.6000004       7.96108179E-06
   18.7199993       9.34198852E-06
   18.8400002       1.06969101E-05
   18.9599991       1.19782808E-05
   19.0799999       1.31368561E-05
   19.2000008       1.41237024E-05
   19.3199997       1.48923045E-05
   19.4400005       1.54006684E-05
   19.5599995       1.56133374E-05
   19.6800003       1.55031921E-05
   19.7999992       1.50529577E-05
   19.9200001       1.42563222E-05
   20.0400009       1.31186080E-05
   20.1599998       1.16569490E-05
   20.2800007       9.89995533E-06
   20.3999996       7.88687339E-06
   20.5200005       5.66627341E-06
   20.6399994       3.29432009E-06
   20.7600002       8.32715330E-07
   20.8799992      -1.65360780E-06
   21.0000000      -4.09891800E-06
   21.1200008      -6.43913972E-06
   21.2399998      -8.61421540E-06
   21.3600006      -1.05702647E-05
   21.4799995      -1.22614520E-05
   21.6000004      -1.36514718E-05
   21.7199993      -1.47146175E-05
   21.8400002      -1.54363643E-05
   21.9599991      -1.58134881E-05
   22.0799999      -1.58537241E-05
   22.2000008      -1.55749767E-05
   22.3199997      -1.50041869E-05
   22.4400005      -1.41758728E-05
   22.5599995      -1.31304669E-05
   22.6800003      -1.19125179E-05
   22.7999992      -1.05688532E-05
   22.9200001      -9.14678094E-06
   23.0400009      -7.69241524E-06
   23.1599998      -6.24918903E-06
   23.2800007      -4.85658484E-06
   23.3999996      -3.54913777E-06
   23.5200005      -2.35570997E-06
   23.6399994      -1.29904140E-06
   23.7600002      -3.95561642E-07
   23.8799992       3.44565194E-07
   24.0000000       9.17193290E-07
   24.1200008       1.32378500E-06
   24.2399998       1.57087425E-06
   24.3600006       1.66944142E-06
   24.4799995       1.63422953E-06
   24.6000004       1.48302718E-06
   24.7199993       1.23593725E-06
   24.8400002       9.14643067E-07
   24.9599991       5.41680322E-07
   25.0799999       1.39719617E-07
   25.2000008      -2.69133892E-07
   25.3199997      -6.64020035E-07
   25.4400005      -1.02597016E-06
   25.5599995      -1.33850904E-06
   25.6800003      -1.58819046E-06
   25.7999992      -1.76504773E-06
   25.9200001      -1.86292971E-06
   26.0400009      -1.87970318E-06
   26.1599998      -1.81729274E-06
   26.2800007      -1.68154691E-06
   26.3999996      -1.48191987E-06
   26.5200005      -1.23097209E-06
   26.6399994      -9.43704720E-07
   26.7600002      -6.36755601E-07
   26.8799992      -3.27496593E-07
   27.0000000      -3.30794521E-08
   27.1200008       2.30513336E-07
   27.2399998       4.49356548E-07
   27.3600006       6.12352892E-07
   27.4799995       7.11837856E-07
   27.6000004       7.43978887E-07
   27.7199993       7.08945379E-07
   27.8400002       6.10836366E-07
   27.9599991       4.57375052E-07
   28.0799999       2.59389566E-07
   28.2000008       3.01170928E-08
   28.3199997      -2.15622265E-07
   28.4400005      -4.62327506E-07
   28.5599995      -6.94737082E-07
   28.6800003      -8.98709686E-07
   28.7999992      -1.06201389E-06
   28.9200001      -1.17498212E-06
   29.0400009      -1.23099414E-06
   29.1599998      -1.22676954E-06
   29.2800007      -1.16246019E-06
   29.3999996      -1.04154537E-06
   29.5200005      -8.70546387E-07
   29.6399994      -6.58585520E-07
   29.7600002      -4.16820598E-07
   29.8799992      -1.57793039E-07
   30.0000000       1.05271141E-07
   30.1200008       3.59169377E-07
   30.2399998       5.91401488E-07
   30.3600006       7.90788306E-07
   30.4799995       9.48000832E-07
   30.6000004       1.05598053E-06
   30.7199993       1.11023405E-06
   30.8400002       1.10899623E-06
   30.9599991       1.05325910E-06
   31.0799999       9.46671491E-07
   31.2000008       7.95320659E-07
   31.3199997       6.07408538E-07
   31.4400005       3.92842821E-07
   31.5599995       1.62761580E-07
   31.6800003      -7.09845835E-08
   31.7999992      -2.96372065E-07
   31.9200001      -5.01741340E-07
   32.0400009      -6.76310549E-07
   32.1599998      -8.10645815E-07
   32.2799988      -8.97069583E-07
   32.4000015      -9.29992495E-07
   32.5200005      -9.06155833E-07
   32.6399994      -8.24775668E-07
   32.7599983      -6.87584020E-07
   32.8800011      -4.98764564E-07
   33.0000000      -2.64785058E-07
   33.1199989       5.86732973E-09
   33.2400017       3.03039030E-07
   33.3600006       6.15337228E-07
   33.4799995       9.30615670E-07
   33.5999985       1.23649750E-06
   33.7200012       1.52091457E-06
   33.8400002       1.77263678E-06
   33.9599991       1.98176599E-06
   34.0800018       2.14017200E-06
   34.2000008       2.24184328E-06
   34.3199997       2.28313706E-06
   34.4399986       2.26290967E-06
   34.5600014       2.18252376E-06
   34.6800003       2.04572802E-06
   34.7999992       1.85841759E-06
   34.9199982       1.62828997E-06
   35.0400009       1.36441793E-06
   35.1599998       1.07676738E-06
   35.2799988       7.75691319E-07
   35.4000015       4.71431747E-07
   35.5200005       1.73661547E-07
   35.6399994      -1.08905034E-07
   35.7599983      -3.68813460E-07
   35.8800011      -6.00066130E-07
   36.0000000      -7.98211545E-07
   36.1199989      -9.60328975E-07
   36.2400017      -1.08492225E-06
   36.3600006      -1.17174181E-06
   36.4799995      -1.22156018E-06
   36.5999985      -1.23592724E-06
   36.7200012      -1.21693415E-06
   36.8400002      -1.16700539E-06
   36.9599991      -1.08874156E-06
   37.0800018      -9.84818939E-07
   37.2000008      -8.57951591E-07
   37.3199997      -7.10907784E-07
   37.4399986      -5.46569765E-07
   37.5600014      -3.68017339E-07
   37.6800003      -1.78614016E-07
   37.7999992       1.79244370E-08
   37.9199982       2.17499135E-07
   38.0400009       4.15647747E-07
   38.1599998       6.07621473E-07
   38.2799988       7.88517866E-07
   38.4000015       9.53460415E-07
   38.5200005       1.09780865E-06
   38.6399994       1.21737810E-06
   38.7599983       1.30864589E-06
   38.8800011       1.36892163E-06
   39.0000000       1.39646284E-06
   39.1199989       1.39052588E-06
   39.2400017       1.35134462E-06
   39.3600006       1.28004683E-06
   39.4799995       1.17851584E-06
   39.5999985       1.04922219E-06
   39.7200012       8.95047151E-07
   39.8400002       7.19122966E-07
   39.9599991       5.24711652E-07
   40.0800018       3.15139005E-07
   40.2000008       9.37899571E-08
   40.3199997      -1.35837453E-07
   40.4399986      -3.70032353E-07
   40.5600014      -6.04748209E-07
   40.6800003      -8.35484741E-07
   40.7999992      -1.05720733E-06
   40.9199982      -1.26433201E-06
   41.0400009      -1.45080196E-06
   41.1599998      -1.61026878E-06
   41.2799988      -1.73638125E-06
   41.4000015      -1.82316796E-06
   41.5200005      -1.86548868E-06
   41.6399994      -1.85951319E-06
   41.7599983      -1.80318079E-06
   41.8800011      -1.69658574E-06
   42.0000000      -1.54223812E-06
   42.1199989      -1.34515665E-06
   42.2400017      -1.11276040E-06
   42.3600006      -8.54550422E-07
   42.4799995      -5.81582810E-07
   42.5999985      -3.05769277E-07
   42.7200012      -3.90518267E-08
   42.8400002       2.07479999E-07
   42.9599991       4.24450377E-07
   43.0800018       6.04953811E-07
   43.2000008       7.45129114E-07
   43.3199997       8.44482827E-07
   43.4399986       9.05918398E-07
   43.5600014       9.35449577E-07
   43.6800003       9.41611290E-07
   43.7999992       9.34608408E-07
   43.9199982       9.25273753E-07
   44.0400009       9.23929008E-07
   44.1599998       9.39255301E-07
   44.2799988       9.77285822E-07
   44.4000015       1.04062246E-06
   44.5200005       1.12796420E-06
   44.6399994       1.23400389E-06
   44.7599983       1.34971549E-06
   44.8800011       1.46302045E-06
   45.0000000       1.55978000E-06
   45.1199989       1.62502920E-06
   45.2400017       1.64434607E-06
   45.3600006       1.60522757E-06
   45.4799995       1.49835262E-06
   45.5999985       1.31860793E-06
   45.7200012       1.06578716E-06
   45.8400002       7.44893555E-07
   45.9599991       3.66017588E-07
   46.0800018      -5.62003244E-08
   46.2000008      -5.03477679E-07
   46.3199997      -9.55089718E-07
   46.4399986      -1.38925907E-06
   46.5600014      -1.78461914E-06
   46.6800003      -2.12163195E-06
   46.7999992      -2.38385087E-06
   46.9199982      -2.55893065E-06
   47.0400009      -2.63932043E-06
   47.1599998      -2.62259437E-06
   47.2799988      -2.51141932E-06
   47.4000015      -2.31317563E-06
   47.5200005      -2.03928380E-06
   47.6399994      -1.70430746E-06
   47.7599983      -1.32491289E-06
   47.8800011      -9.18775584E-07
   48.0000000      -5.03518436E-07
   48.1199989      -9.57558228E-08
   48.2400017       2.89697226E-07
   48.3600006       6.40411031E-07
   48.4799995       9.46703778E-07
   48.5999985       1.20178277E-06
   48.7200012       1.40168345E-06
   48.8400002       1.54504062E-06
   48.9599991       1.63273569E-06
   49.0800018       1.66746656E-06
   49.2000008       1.65329106E-06
   49.3199997       1.59518504E-06
   49.4399986       1.49865161E-06
   49.5600014       1.36940844E-06
   49.6800003       1.21316543E-06
   49.7999992       1.03549723E-06
   49.9199982       8.41799874E-07
   50.0400009       6.37316418E-07
   50.1599998       4.27206146E-07
   50.2799988       2.16629473E-07
   50.4000015       1.08185843E-08
   50.5200005      -1.84891761E-07
   50.6399994      -3.65095730E-07
   50.7599983      -5.24424081E-07
   50.8800011      -6.57732130E-07
   51.0000000      -7.60362525E-07
   51.1199989      -8.28464238E-07
   51.2400017      -8.59341640E-07
   51.3600006      -8.51797324E-07
   51.4799995      -8.06429455E-07
   51.5999985      -7.25841119E-07
   51.7200012      -6.14723831E-07
   51.8400002      -4.79787559E-07
   51.9599991      -3.29516581E-07
   52.0800018      -1.73751118E-07
   52.2000008      -2.31097914E-08
   52.3199997       1.11715195E-07
   52.4399986       2.20741043E-07
   52.5600014       2.95494942E-07
   52.6800003       3.29764788E-07
   52.7999992       3.20230583E-07
   52.9199982       2.66913673E-07
   53.0400009       1.73391186E-07
   53.1599998       4.67422971E-08
   53.2799988      -1.02787467E-07
   53.4000015      -2.62393570E-07
   53.5200005      -4.17557828E-07
   53.6399994      -5.53076632E-07
   53.7599983      -6.54199880E-07
   53.8800011      -7.07797028E-07
   54.0000000      -7.03460330E-07
   54.1199989      -6.34458445E-07
   54.2400017      -4.98463066E-07
   54.3600006      -2.97984542E-07
   54.4799995      -4.04740916E-08
   54.5999985       2.61925493E-07
   54.7200012       5.92974288E-07
   54.8400002       9.33242688E-07
   54.9599991       1.26127657E-06
   55.0800018       1.55494445E-06
   55.2000008       1.79287974E-06
   55.3199997       1.95591883E-06
   55.4399986       2.02843830E-06
   55.5600014       1.99949909E-06
   55.6800003       1.86371688E-06
   55.7999992       1.62179731E-06
   55.9199982       1.28069507E-06
   56.0400009       8.53383654E-07
   56.1599998       3.58244847E-07
   56.2799988      -1.81884872E-07
   56.4000015      -7.40953965E-07
   56.5200005      -1.29114392E-06
   56.6399994      -1.80443760E-06
   56.7599983      -2.25420945E-06
   56.8800011      -2.61674313E-06
   57.0000000      -2.87258058E-06
   57.1199989      -3.00762190E-06
   57.2400017      -3.01391447E-06
   57.3600006      -2.89008017E-06
   57.4799995      -2.64136065E-06
   57.5999985      -2.27928240E-06
   57.7200012      -1.82096562E-06
   57.8400002      -1.28812371E-06
   57.9599991      -7.05819332E-07
   58.0800018      -1.01056941E-07
   58.2000008       4.98701866E-07
   58.3199997       1.06700861E-06
   58.4399986       1.57979855E-06
   58.5600014       2.01658440E-06
   58.6800003       2.36140954E-06
   58.7999992       2.60351726E-06
   58.9199982       2.73770752E-06
   59.0400009       2.76437481E-06
   59.1599998       2.68924100E-06
   59.2799988       2.52280824E-06
   59.4000015       2.27957594E-06
   59.5200005       1.97707072E-06
   59.6399994       1.63475067E-06
   59.7599983       1.27284352E-06
   59.8800011       9.11182269E-07
   60.0000000       5.68099495E-07
   60.1199989       2.59439815E-07
   60.2400017      -2.26030461E-09
   60.3600006      -2.08379362E-07
   60.4799995      -3.54570915E-07
   60.5999985      -4.40855956E-07
   60.7200012      -4.71441268E-07
   60.8400002      -4.54271827E-07
   60.9599991      -4.00344646E-07
   61.0800018      -3.22825258E-07
   61.2000008      -2.36025031E-07
   61.3199997      -1.54307216E-07
   61.4399986      -9.09977729E-08
   61.5600014      -5.73780383E-08
   61.6800003      -6.18331271E-08
   61.7999992      -1.09217922E-07
   61.9199982      -2.00488174E-07
   62.0400009      -3.32624381E-07
   62.1599998      -4.98852785E-07
   62.2799988      -6.89146759E-07
   62.4000015      -8.90969034E-07
   62.5200005      -1.09019834E-06
   62.6399994      -1.27216902E-06
   62.7599983      -1.42274644E-06
   62.8800011      -1.52935718E-06
   63.0000000      -1.58189937E-06
   63.1199989      -1.57346801E-06
   63.2400017      -1.50084713E-06
   63.3600006      -1.36473602E-06
   63.4799995      -1.16970216E-06
   63.5999985      -9.23872278E-07
   63.7200012      -6.38392748E-07
   63.8400002      -3.26706981E-07
   63.9599991      -3.70872177E-09
   64.0800018       3.15163305E-07
   64.1999969       6.14824501E-07
   64.3199997       8.81377673E-07
   64.4400024       1.10283133E-06
   64.5599976       1.26966620E-06
   64.6800003       1.37522977E-06
   64.8000031       1.41595399E-06
   64.9199982       1.39140059E-06
   65.0400009       1.30415549E-06
   65.1600037       1.15959369E-06
   65.2799988       9.65541290E-07
   65.4000015       7.31861633E-07
   65.5199966       4.69984229E-07
   65.6399994       1.92395007E-07
   65.7600021      -8.79011708E-08
   65.8799973      -3.57936585E-07
   66.0000000      -6.05345576E-07
   66.1200027      -8.18927163E-07
   66.2399979      -9.89187015E-07
   66.3600006      -1.10883639E-06
   66.4800034      -1.17321633E-06
   66.5999985      -1.18061439E-06
   66.7200012      -1.13244062E-06
   66.8399963      -1.03322964E-06
   66.9599991      -8.90451702E-07
   67.0800018      -7.14124837E-07
   67.1999969      -5.16237719E-07
   67.3199997      -3.10011785E-07
   67.4400024      -1.09045260E-07
   67.5599976       7.36011572E-08
   67.6800003       2.26312636E-07
   67.8000031       3.39753655E-07
   67.9199982       4.07561373E-07
   68.0400009       4.26843656E-07
   68.1600037       3.98439681E-07
   68.2799988       3.26918212E-07
   68.4000015       2.20306873E-07
   68.5199966       8.95646295E-08
   68.6399994      -5.21728580E-08
   68.7600021      -1.90529761E-07
   68.8799973      -3.10950156E-07
   69.0000000      -3.99813047E-07
   69.1200027      -4.45527263E-07
   69.2399979      -4.39529344E-07
   69.3600006      -3.77108648E-07
   69.4800034      -2.57990934E-07
   69.5999985      -8.66249366E-08
   69.7200012       1.27867906E-07
   69.8399963       3.72098242E-07
   69.9599991       6.29160809E-07
   70.0800018       8.79699314E-07
   70.1999969       1.10322560E-06
   70.3199997       1.27960755E-06
   70.4400024       1.39062570E-06
   70.5599976       1.42148292E-06
   70.6800003       1.36214987E-06
   70.8000031       1.20843538E-06
   70.9199982       9.62683657E-07
   71.0400009       6.34023593E-07
   71.1600037       2.38128592E-07
   71.2799988      -2.03525687E-07
   71.4000015      -6.64875188E-07
   71.5199966      -1.11688848E-06
   71.6399994      -1.52949610E-06
   71.7600021      -1.87369915E-06
   71.8799973      -2.12370560E-06
   72.0000000      -2.25893632E-06
   72.1200027      -2.26573729E-06
   72.2399979      -2.13864996E-06
   72.3600006      -1.88112131E-06
   72.4800034      -1.50556775E-06
   72.5999985      -1.03276057E-06
   72.7200012      -4.90554783E-07