  -30.0000000       0.00000000    
  -29.8799992       0.00000000    
  -29.7600002       0.00000000    
  -29.6399994       0.00000000    
  -29.5200005       4.60326546E-42
  -29.3999996       6.91092377E-41
  -29.2800007      -2.01136776E-40
  -29.1599998      -3.29367497E-39
  -29.0400009      -1.24915725E-38
  -28.9200001      -1.55325695E-38
  -28.7999992       4.93678458E-38
  -28.6800003       2.90735038E-37
  -28.5599995       6.94172632E-37
  -28.4400005       7.18765084E-37
  -28.3199997      -1.01388576E-36
  -28.2000008      -6.01098048E-36
  -28.0799999      -1.32199478E-35
  -27.9599991      -1.50412208E-35
  -27.8400002       3.86022437E-36
  -27.7199993       5.81552871E-35
  -27.6000004       1.40029835E-34
  -27.4799995       1.92354406E-34
  -27.3600006       1.02962583E-34
  -27.2399998      -2.45468383E-34
  -27.1200008      -8.56226871E-34
  -27.0000000      -1.47404879E-33
  -26.8799992      -1.53028940E-33
  -26.7600002      -3.19415771E-34
  -26.6399994       2.53251882E-33
  -26.5200005       6.44866283E-33
  -26.3999996       9.51128626E-33
  -26.2800007       8.78220866E-33
  -26.1599998       1.60605424E-33
  -26.0400009      -1.23816054E-32
  -25.9200001      -2.94944522E-32
  -25.7999992      -4.18108059E-32
  -25.6800003      -3.95413554E-32
  -25.5599995      -1.57458849E-32
  -25.4400005       2.83973868E-32
  -25.3199997       8.06999970E-32
  -25.2000008       1.20141142E-31
  -25.0799999       1.24816670E-31
  -24.9599991       8.31858620E-32
  -24.8400002       3.25212671E-33
  -24.7199993      -8.65134690E-32
  -24.6000004      -1.48263222E-31
  -24.4799995      -1.56105850E-31
  -24.3600006      -1.19075239E-31
  -24.2399998      -9.20238633E-32
  -24.1200008      -1.60677335E-31
  -24.0000000      -3.94450201E-31
  -23.8799992      -7.75475927E-31
  -23.7600002      -1.13131673E-30
  -23.6399994      -1.11481900E-30
  -23.5200005      -2.77465920E-31
  -23.3999996       1.73750422E-30
  -23.2800007       4.90346428E-30
  -23.1599998       8.50932273E-30
  -23.0400009       1.10038120E-29
  -22.9200001       1.01680397E-29
  -22.7999992       3.75166714E-30
  -22.6800003      -9.43713497E-30
  -22.5599995      -2.82264834E-29
  -22.4400005      -4.80476820E-29
  -22.3199997      -6.08227214E-29
  -22.2000008      -5.63711449E-29
  -22.0799999      -2.55860184E-29
  -21.9599991       3.50170897E-29
  -21.8400002       1.18579495E-28
  -21.7199993       2.04904405E-28
  -21.6000004       2.61326160E-28
  -21.4799995       2.49063379E-28
  -21.3600006       1.35267377E-28
  -21.2399998      -9.11509059E-29
  -21.1200008      -4.04175225E-28
  -21.0000000      -7.31854534E-28
  -20.8799992      -9.60362367E-28
  -20.7600002      -9.55519327E-28
  -20.6399994      -6.02155768E-28
  -20.5200005       1.44475585E-28
  -20.3999996       1.20797408E-27
  -20.2800007       2.35923722E-27
  -20.1599998       3.22467021E-27
  -20.0400009       3.35072521E-27
  -19.9200001       2.32948776E-27
  -19.7999992      -2.95910379E-29
  -19.6800003      -3.52117387E-27
  -19.5599995      -7.42108108E-27
  -19.4400005      -1.04932598E-26
  -19.3199997      -1.11914287E-26
  -19.2000008      -8.08056341E-27
  -19.0799999      -4.32783710E-28
  -18.9599991       1.11385804E-26
  -18.8400002       2.42290846E-26
  -18.7199993       3.46446232E-26
  -18.6000004       3.70858364E-26
  -18.4799995       2.66031785E-26
  -18.3600006       6.59178798E-28
  -18.2399998      -3.86807776E-26
  -18.1200008      -8.31978193E-26
  -18.0000000      -1.18519584E-25
  -17.8799992      -1.26449349E-25
  -17.7600002      -8.99132875E-26
  -17.6399994       2.14167533E-29
  -17.5200005       1.36648076E-25
  -17.3999996       2.92197087E-25
  -17.2800007       4.17540429E-25
  -17.1599998       4.49700020E-25
  -17.0400009       3.28291812E-25
  -16.9200001       1.93217227E-26
  -16.7999992      -4.58738098E-25
  -16.6800003      -1.01503147E-24
  -16.5599995      -1.48296926E-24
  -16.4400005      -1.64302273E-24
  -16.3199997      -1.27648847E-24
  -16.2000008      -2.46186060E-25
  -16.0799999       1.41177999E-24
  -15.9600000       3.41302840E-24
  -15.8400002       5.20233848E-24
  -15.7200003       6.01798398E-24
  -15.6000004       5.06319525E-24
  -15.4799995       1.77645165E-24
  -15.3599997      -3.84730540E-24
  -15.2399998      -1.09743505E-23
  -15.1199999      -1.78089231E-23
  -15.0000000      -2.17517508E-23
  -14.8800001      -1.99233322E-23
  -14.7600002      -1.00467353E-23
  -14.6400003       8.44454458E-24
  -14.5200005       3.33527551E-23
  -14.3999996       5.91123264E-23
  -14.2799997       7.70685487E-23
  -14.1599998       7.69734184E-23
  -14.0400000       4.97742043E-23
  -13.9200001      -8.64071219E-24
  -13.8000002      -9.35665585E-23
  -13.6800003      -1.88750736E-22
  -13.5600004      -2.66301493E-22
  -13.4399996      -2.90551784E-22
  -13.3199997      -2.26479088E-22
  -13.1999998      -5.20200314E-23
  -13.0799999       2.28019727E-22
  -12.9600000       5.70405302E-22
  -12.8400002       8.89305996E-22
  -12.7200003       1.06449562E-21
  -12.6000004       9.65123683E-22
  -12.4799995       4.88582024E-22
  -12.3599997      -3.91269784E-22
  -12.2399998      -1.57809723E-21
  -12.1199999      -2.82564352E-21
  -12.0000000      -3.74679698E-21
  -11.8800001      -3.87360522E-21
  -11.7600002      -2.77275909E-21
  -11.6400003      -2.05070299E-22
  -11.5200005       3.70227221E-21
  -11.3999996       8.32069137E-21
  -11.2799997       1.24838696E-20
  -11.1599998       1.46083974E-20
  -11.0400000       1.30065476E-20
  -10.9200001       6.38113741E-21
  -10.8000002      -5.57037763E-21
  -10.6800003      -2.15840002E-20
  -10.5600004      -3.84863325E-20
  -10.4399996      -5.12962971E-20
  -10.3199997      -5.39465159E-20
  -10.1999998      -4.06859706E-20
  -10.0799999      -8.04061722E-21
  -9.96000004       4.30211596E-20
  -9.84000015       1.05296938E-19
  -9.72000027       1.64659904E-19
  -9.60000038       2.01189518E-19
  -9.47999954       1.92612379E-19
  -9.35999966       1.20058002E-19
  -9.23999977      -2.45671770E-20
  -9.11999989      -2.31089835E-19
  -9.00000000      -4.65676939E-19
  -8.88000011      -6.70116695E-19
  -8.76000023      -7.68104717E-19
  -8.64000034      -6.79818852E-19
  -8.52000046      -3.44179772E-19
  -8.39999962       2.54347130E-19
  -8.27999973       1.06027866E-18
  -8.15999985       1.93104590E-18
  -8.03999996       2.63921859E-18
  -7.92000008       2.90049868E-18
  -7.80000019       2.43078810E-18
  -7.67999983       1.02870177E-18
  -7.55999994      -1.32896688E-18
  -7.44000006      -4.40043584E-18
  -7.32000017      -7.62927539E-18
  -7.19999981      -1.01621694E-17
  -7.07999992      -1.09584251E-17
  -6.96000004      -9.00024123E-18
  -6.84000015      -3.58859115E-18
  -6.71999979       5.32068585E-18
  -6.59999990       1.68162675E-17
  -6.48000002       2.88640804E-17
  -6.36000013       3.83760188E-17
  -6.23999977       4.15959980E-17
  -6.11999989       3.48328866E-17
  -6.00000000       1.54886823E-17
  -5.88000011      -1.67699752E-17
  -5.76000023      -5.89497477E-17
  -5.63999987      -1.04105187E-16
  -5.51999998      -1.41495914E-16
  -5.40000010      -1.57807810E-16
  -5.28000021      -1.39556248E-16
  -5.15999985      -7.65309157E-17
  -5.03999996       3.41833910E-17
  -4.92000008       1.84408734E-16
  -4.80000019       3.52358665E-16
  -4.67999983       5.02559100E-16
  -4.55999994       5.89198924E-16
  -4.44000006       5.63433452E-16
  -4.32000017       3.84380349E-16
  -4.19999981       3.25337513E-17
  -4.07999992      -4.76768853E-16
  -3.96000004      -1.08310865E-15
  -3.83999991      -1.67772578E-15
  -3.72000003      -2.11071251E-15
  -3.59999990      -2.21093069E-15
  -3.48000002      -1.81872776E-15
  -3.35999990      -8.28506643E-16
  -3.24000001       7.65205965E-16
  -3.11999989       2.82771467E-15
  -3.00000000       5.06172447E-15
  -2.88000011       7.01424172E-15
  -2.75999999       8.12198717E-15
  -2.64000010       7.79897370E-15
  -2.51999998       5.56160224E-15
  -2.40000010       1.17648122E-15
  -2.27999997      -5.19413393E-15
  -2.16000009      -1.28826215E-14
  -2.03999996      -2.06789965E-14
  -1.91999996      -2.69002993E-14
  -1.79999995      -2.95882940E-14
  -1.67999995      -2.68368379E-14
  -1.55999994      -1.72227311E-14
  -1.44000006      -2.82835260E-16
  -1.32000005       2.30486694E-14
  -1.20000005       5.01489075E-14
  -1.08000004       7.66708948E-14
 -0.959999979       9.68562185E-14
 -0.839999974       1.04245476E-13
 -0.720000029       9.27700096E-14
 -0.600000024       5.81250678E-14
 -0.479999989      -7.63902222E-16
 -0.360000014      -8.04475437E-14
 -0.239999995      -1.72144891E-13
 -0.119999997      -2.61734509E-13
  -1.11022302E-15  -3.30794826E-13
  0.119999997      -3.58813890E-13
  0.239999995      -3.26497889E-13
  0.360000014      -2.19874994E-13
  0.479999989      -3.46503560E-14
  0.600000024       2.19938014E-13
  0.720000029       5.18633368E-13
  0.839999974       8.19909570E-13
  0.959999979       1.06864962E-12
   1.08000004       1.20210504E-12
   1.20000005       1.15898849E-12
   1.32000005       8.90946930E-13
   1.44000006       3.75038054E-13
   1.55999994      -3.74715368E-13
   1.67999995      -1.29896170E-12
   1.79999995      -2.29015570E-12
   1.91999996      -3.19714806E-12
   2.03999996      -3.83842524E-12
   2.16000009      -4.02404065E-12
   2.27999997      -3.58485680E-12
   2.40000010      -2.40618246E-12
   2.51999998      -4.61492986E-13
   2.64000010       2.15911989E-12
   2.75999999       5.23153743E-12
   2.88000011       8.39662367E-12
   3.00000000       1.11797680E-11
   3.11999989       1.30328933E-11
   3.24000001       1.33979815E-11
   3.35999990       1.17878511E-11
   3.48000002       7.87654924E-12
   3.59999990       1.58880418E-12
   3.72000003      -6.82408600E-12
   3.83999991      -1.67352625E-11
   3.96000004      -2.71327492E-11
   4.07999992      -3.66592902E-11
   4.19999981      -4.37074509E-11
   4.32000017      -4.65702372E-11
   4.44000006      -4.36411150E-11
   4.55999994      -3.36503048E-11
   4.67999983      -1.59176665E-11
   4.80000019       9.40357601E-12
   4.92000008       4.11223451E-11
   5.03999996       7.68771852E-11
   5.15999985       1.13108377E-10
   5.28000021       1.45164533E-10
   5.40000010       1.67567071E-10
   5.51999998       1.74445972E-10
   5.63999987       1.60146146E-10
   5.76000023       1.19985064E-10
   5.88000011       5.11203684E-11
   6.00000000      -4.65389428E-11
   6.11999989      -1.69471118E-10
   6.23999977      -3.09847897E-10
   6.36000013      -4.55146532E-10
   6.48000002      -5.88215310E-10
   6.59999990      -6.87935431E-10
   6.71999979      -7.30595417E-10
   6.84000015      -6.92044366E-10
   6.96000004      -5.50611334E-10
   7.07999992      -2.90674790E-10
   7.19999981       9.33610966E-11
   7.32000017       5.93061322E-10
   7.44000006       1.18243848E-09
   7.55999994       1.81553272E-09
   7.67999983       2.42577114E-09
   7.80000019       2.92776958E-09
   7.92000008       3.22213434E-09
   8.03999996       3.20359717E-09
   8.15999985       2.77249357E-09
   8.27999973       1.84915472E-09
   8.39999962       3.90276089E-10
   8.52000046      -1.59420943E-09
   8.64000034      -4.02572553E-09
   8.76000023      -6.74548284E-09
   8.88000011      -9.50931067E-09
   9.00000000      -1.19913901E-08
   9.11999989      -1.37989931E-08
   9.23999977      -1.44995820E-08
   9.35999966      -1.36604843E-08
   9.47999954      -1.08999441E-08
   9.60000038      -5.94668004E-09
   9.72000027       1.29665079E-09
   9.84000015       1.06923013E-08
   9.96000004       2.18161027E-08
   10.0799999       3.39242519E-08
   10.1999998       4.59464680E-08
   10.3199997       5.65129241E-08
   10.4399996       6.40204547E-08
   10.5600004       6.67405828E-08
   10.6800003       6.29682546E-08
   10.8000002       5.12055074E-08
   10.9200001       3.03697618E-08
   11.0400000       1.14444565E-11
   11.1599998      -3.94782873E-08
   11.2799997      -8.66921894E-08
   11.3999996      -1.39087874E-07
   11.5200005      -1.92948605E-07
   11.6400003      -2.43445044E-07
   11.7600002      -2.84813837E-07
   11.8800001      -3.10662188E-07
   12.0000000      -3.14398136E-07
   12.1199999      -2.89776040E-07
   12.2399998      -2.31536106E-07
   12.3599997      -1.36104191E-07
   12.4799995      -2.31097252E-09
   12.6000004       1.67921371E-07
   12.7200003       3.68979471E-07
   12.8400002       5.91103515E-07
   12.9600000       8.20130538E-07
   13.0799999       1.03748380E-06
   13.1999998       1.22044537E-06
   13.3199997       1.34273375E-06
   13.4399996       1.37538984E-06
   13.5600004       1.28795841E-06
   13.6800003       1.04992785E-06
   13.8000002       6.32372803E-07
   13.9200001       9.72790115E-09
   14.0400000      -8.38395408E-07
   14.1599998      -1.92544712E-06
   14.2799997      -3.25633505E-06
   14.3999996      -4.82607948E-06
   14.5200005      -6.61882268E-06
   14.6400003      -8.60727505E-06
   14.7600002      -1.07526603E-05
   14.8800001      -1.30052031E-05
   15.0000000      -1.53051678E-05
   15.1199999      -1.75844452E-05
   15.2399998      -1.97686386E-05
   15.3599997      -2.17795769E-05
   15.4799995      -2.35381758E-05
   15.6000004      -2.49675086E-05
   15.7200003      -2.59959816E-05
   15.8400002      -2.65604467E-05
   15.9600000      -2.66091374E-05
   16.0799999      -2.61042624E-05
   16.2000008      -2.50241465E-05
   16.3199997      -2.33647916E-05
   16.4400005      -2.11407969E-05
   16.5599995      -1.83855373E-05
   16.6800003      -1.51506292E-05
   16.7999992      -1.15046296E-05
   16.9200001      -7.53104405E-06
   17.0400009      -3.32571335E-06
   17.1599998       1.00634315E-06
   17.2800007       5.35448089E-06
   17.3999996       9.60624675E-06
   17.5200005       1.36513008E-05
   17.6399994       1.73852804E-05
   17.7600002       2.07134599E-05
   17.8799992       2.35540319E-05
   18.0000000       2.58409127E-05
   18.1200008       2.75259281E-05
   18.2399998       2.85803308E-05
   18.3600006       2.89955624E-05
   18.4799995       2.87832645E-05
   18.6000004       2.79745072E-05
   18.7199993       2.66183506E-05
   18.8400002       2.47797125E-05
   18.9599991       2.25367094E-05
   19.0799999       1.99775350E-05
   19.2000008       1.71970423E-05
   19.3199997       1.42931349E-05
   19.4400005       1.13631304E-05
   19.5599995       8.50023844E-06
   19.6800003       5.79027983E-06
   19.7999992       3.30879038E-06
   19.9200001       1.11860038E-06
   20.0400009      -7.31999762E-07
   20.1599998      -2.21045866E-06
   20.2800007      -3.30048056E-06
   20.3999996      -4.00185445E-06
   20.5200005      -4.32961815E-06
   20.6399994      -4.31260787E-06
   20.7600002      -3.99147484E-06
   20.8799992      -3.41627447E-06
   21.0000000      -2.64374626E-06
   21.1200008      -1.73442913E-06
   21.2399998      -7.49746505E-07
   21.3600006       2.50793050E-07
   21.4799995       1.21215180E-06
   21.6000004       2.08596157E-06
   21.7199993       2.83227337E-06
   21.8400002       3.42079647E-06
   21.9599991       3.83159340E-06
   22.0799999       4.05522860E-06
   22.2000008       4.09239919E-06
   22.3199997       3.95310053E-06
   22.4400005       3.65540541E-06
   22.5599995       3.22394158E-06
   22.6800003       2.68817962E-06
   22.7999992       2.08062238E-06
   22.9200001       1.43500449E-06
   23.0400009       7.84585040E-07
   23.1599998       1.60616551E-07
   23.2800007      -4.08957447E-07
   23.3999996      -9.00533792E-07
   23.5200005      -1.29558953E-06
   23.6399994      -1.58112744E-06
   23.7600002      -1.74984075E-06
   23.8799992      -1.80002064E-06
   24.0000000      -1.73524336E-06
   24.1200008      -1.56387364E-06
   24.2399998      -1.29842886E-06
   24.3600006      -9.54845177E-07
   24.4799995      -5.51680387E-07
   24.6000004      -1.09289935E-07
   24.7199993       3.50998704E-07
   24.8400002       8.07693198E-07
   24.9599991       1.23990890E-06
   25.0799999       1.62809556E-06
   25.2000008       1.95470989E-06
   25.3199997       2.20482480E-06
   25.4400005       2.36666801E-06
   25.5599995       2.43207387E-06
   25.6800003       2.39683754E-06
   25.7999992       2.26095312E-06
   25.9200001       2.02871479E-06
   26.0400009       1.70866667E-06
   26.1599998       1.31338027E-06
   26.2800007       8.59053216E-07
   26.3999996       3.64924716E-07
   26.5200005      -1.47484087E-07
   26.6399994      -6.55284339E-07
   26.7600002      -1.13525743E-06
   26.8799992      -1.56497106E-06
   27.0000000      -1.92391849E-06
   27.1200008      -2.19461890E-06
   27.2399998      -2.36361143E-06
   27.3600006      -2.42227952E-06
   27.4799995      -2.36744427E-06
   27.6000004      -2.20168317E-06
   27.7199993      -1.93333813E-06
   27.8400002      -1.57620570E-06
   27.9599991      -1.14890918E-06
   28.0799999      -6.73992417E-07
   28.2000008      -1.76773284E-07
   28.3199997       3.15970283E-07
   28.4400005       7.77410207E-07
   28.5599995       1.18208754E-06
   28.6800003       1.50725816E-06
   28.7999992       1.73408455E-06
   28.9200001       1.84860630E-06
   29.0400009       1.84243515E-06
   29.1599998       1.71314082E-06
   29.2800007       1.46431205E-06
   29.3999996       1.10529993E-06
   29.5200005       6.50669335E-07
   29.6399994       1.19399331E-07
   29.7600002      -4.66112795E-07
   29.8799992      -1.08117968E-06
   30.0000000      -1.70002011E-06
   30.1200008      -2.29695456E-06
   30.2399998      -2.84754447E-06
   30.3600006      -3.32961463E-06
   30.4799995      -3.72412910E-06
   30.6000004      -4.01587931E-06
   30.7199993      -4.19397475E-06
   30.8400002      -4.25213057E-06
   30.9599991      -4.18875425E-06
   31.0799999      -4.00684485E-06
   31.2000008      -3.71372698E-06
   31.3199997      -3.32063883E-06
   31.4400005      -2.84219755E-06
   31.5599995      -2.29577245E-06
   31.6800003      -1.70078567E-06
   31.7999992      -1.07796632E-06
   31.9200001      -4.48583279E-07
   32.0400009       1.66322181E-07
   32.1599998       7.46678609E-07
   32.2799988       1.27407839E-06
   32.4000015       1.73240062E-06
   32.5200005       2.10834037E-06
   32.6399994       2.39182623E-06
   32.7599983       2.57630882E-06
   32.8800011       2.65890753E-06
   33.0000000       2.64041546E-06
   33.1199989       2.52515906E-06
   33.2400017       2.32072216E-06
   33.3600006       2.03755076E-06
   33.4799995       1.68845600E-06
   33.5999985       1.28804231E-06
   33.7200012       8.52085975E-07
   33.8400002       3.96895075E-07
   33.9599991      -6.13250180E-08
   34.0800018      -5.07071604E-07
   34.2000008      -9.26087466E-07
   34.3199997      -1.30582748E-06
   34.4399986      -1.63583229E-06
   34.5600014      -1.90799710E-06
   34.6800003      -2.11672864E-06
   34.7999992      -2.25898930E-06
   34.9199982      -2.33422793E-06
   35.0400009      -2.34421009E-06
   35.1599998      -2.29275565E-06
   35.2799988      -2.18540663E-06
   35.4000015      -2.02904357E-06
   35.5200005      -1.83147517E-06
   35.6399994      -1.60102786E-06
   35.7599983      -1.34615618E-06
   35.8800011      -1.07509379E-06
   36.0000000      -7.95563494E-07
   36.1199989      -5.14551971E-07
   36.2400017      -2.38154982E-07
   36.3600006       2.85094970E-08
   36.4799995       2.81328028E-07
   36.5999985       5.17166541E-07
   36.7200012       7.33805450E-07
   36.8400002       9.29844987E-07
   36.9599991       1.10459041E-06
   37.0800018       1.25792531E-06
   37.2000008       1.39017823E-06
   37.3199997       1.50198593E-06
   37.4399986       1.59415902E-06
   37.5600014       1.66754978E-06
   37.6800003       1.72293039E-06
   37.7999992       1.76088247E-06
   37.9199982       1.78170740E-06
   38.0400009       1.78536095E-06
   38.1599998       1.77142158E-06
   38.2799988       1.73909439E-06
   38.4000015       1.68725467E-06
   38.5200005       1.61453340E-06
   38.6399994       1.51943868E-06
   38.7599983       1.40050906E-06
   38.8800011       1.25649137E-06
   39.0000000       1.08653012E-06
   39.1199989       8.90358649E-07
   39.2400017       6.68478265E-07
   39.3600006       4.22312127E-07
   39.4799995       1.54323445E-07
   39.5999985      -1.31914092E-07
   39.7200012      -4.31701551E-07
   39.8400002      -7.39261282E-07
   39.9599991      -1.04784738E-06
   40.0800018      -1.34991888E-06
   40.2000008      -1.63737116E-06
   40.3199997      -1.90181436E-06
   40.4399986      -2.13488852E-06
   40.5600014      -2.32859816E-06
   40.6800003      -2.47564844E-06
   40.7999992      -2.56976455E-06
   40.9199982      -2.60597949E-06
   41.0400009      -2.58087175E-06
   41.1599998      -2.49274672E-06
   41.2799988      -2.34174877E-06
   41.4000015      -2.12990972E-06
   41.5200005      -1.86112936E-06
   41.6399994      -1.54109546E-06
   41.7599983      -1.17714944E-06
   41.8800011      -7.78104834E-07
   42.0000000      -3.54022490E-07
   42.1199989       8.40512158E-08
   42.2400017       5.24380710E-07
   42.3600006       9.54869051E-07
   42.4799995       1.36341225E-06
   42.5999985       1.73827459E-06
   42.7200012       2.06847358E-06
   42.8400002       2.34416279E-06
   42.9599991       2.55699479E-06
   43.0800018       2.70044529E-06
   43.2000008       2.77008166E-06
   43.3199997       2.76376227E-06
   43.4399986       2.68174972E-06
   43.5600014       2.52673885E-06
   43.6800003       2.30379442E-06
   43.7999992       2.02020692E-06
   43.9199982       1.68527708E-06
   44.0400009       1.31003333E-06
   44.1599998       9.06898777E-07
   44.2799988       4.89313550E-07
   44.4000015       7.13157391E-08
   44.5200005      -3.32914510E-07
   44.6399994      -7.09546839E-07
   44.7599983      -1.04562559E-06
   44.8800011      -1.32961827E-06
   45.0000000      -1.55197097E-06
   45.1199989      -1.70564442E-06
   45.2400017      -1.78659161E-06
   45.3600006      -1.79413144E-06
   45.4799995      -1.73117076E-06
   45.5999985      -1.60422371E-06
   45.7200012      -1.42319664E-06
   45.8400002      -1.20091579E-06
   45.9599991      -9.52407220E-07
   46.0800018      -6.93961056E-07
   46.2000008      -4.42038754E-07
   46.3199997      -2.12111843E-07
   46.4399986      -1.75293824E-08
   46.5600014       1.31479183E-07
   46.6800003       2.28566236E-07
   46.7999992       2.71714072E-07
   46.9199982       2.63317077E-07
   47.0400009       2.09884192E-07
   47.1599998       1.21385867E-07
   47.2799988       1.03084394E-08
   47.4000015      -1.09491104E-07
   47.5200005      -2.24015409E-07
   47.6399994      -3.20320851E-07
   47.7599983      -3.87560561E-07
   47.8800011      -4.17780882E-07
   48.0000000      -4.06406116E-07
   48.1199989      -3.52383239E-07
   48.2400017      -2.57997556E-07
   48.3600006      -1.28406469E-07
   48.4799995       2.90331261E-08
   48.5999985       2.05549171E-07
   48.7200012       3.91750348E-07
   48.8400002       5.78341940E-07
   48.9599991       7.56688110E-07
   49.0800018       9.19175363E-07
   49.2000008       1.05936738E-06
   49.3199997       1.17197158E-06
   49.4399986       1.25266934E-06
   49.5600014       1.29787929E-06
   49.6800003       1.30453532E-06
   49.7999992       1.26994996E-06
   49.9199982       1.19182403E-06
   50.0400009       1.06843117E-06
   50.1599998       8.98973838E-07
   50.2799988       6.84072972E-07
   50.4000015       4.26322885E-07
   50.5200005       1.30818435E-07
   50.6399994      -1.94447750E-07
   50.7599983      -5.38417112E-07
   50.8800011      -8.87104761E-07
   51.0000000      -1.22409620E-06
   51.1199989      -1.53140661E-06
   51.2400017      -1.79066080E-06
   51.3600006      -1.98450880E-06
   51.4799995      -2.09815244E-06
   51.5999985      -2.12082932E-06
   51.7200012      -2.04709772E-06
   51.8400002      -1.87776379E-06
   51.9599991      -1.62032927E-06
   52.0800018      -1.28886938E-06
   52.2000008      -9.03312696E-07
   52.3199997      -4.88145417E-07
   52.4399986      -7.06259939E-08
   52.5600014       3.21352331E-07
   52.6800003       6.61572528E-07
   52.7999992       9.27774181E-07
   52.9199982       1.10369137E-06
   53.0400009       1.18064770E-06
   53.1599998       1.15854232E-06
   53.2799988       1.04610660E-06
   53.4000015       8.60371756E-07
   53.5200005       6.25362873E-07
   53.6399994       3.70098888E-07
   53.7599983       1.26050807E-07
   53.8800011      -7.57347820E-08
   54.0000000      -2.07599996E-07
   54.1199989      -2.48061070E-07
   54.2400017      -1.84153450E-07
   54.3600006      -1.31033424E-08
   54.4799995       2.56854690E-07
   54.5999985       6.06624894E-07
   54.7200012       1.00738725E-06
   54.8400002       1.42266299E-06
   54.9599991       1.81115729E-06
   55.0800018       2.13015551E-06
   55.2000008       2.33918922E-06
   55.3199997       2.40366035E-06
   55.4399986       2.29810144E-06
   55.5600014       2.00878162E-06
   55.6800003       1.53541441E-06
   55.7999992       8.91806110E-07
   55.9199982       1.05366482E-07
   56.0400009      -7.84490908E-07
   56.1599998      -1.72893681E-06
   56.2799988      -2.67309542E-06
   56.4000015      -3.55991915E-06
   56.5200005      -4.33425339E-06
   56.6399994      -4.94675942E-06
   56.7599983      -5.35738309E-06
   56.8800011      -5.53809832E-06
   57.0000000      -5.47472791E-06
   57.1199989      -5.16770979E-06
   57.2400017      -4.63179140E-06
   57.3600006      -3.89471143E-06
   57.4799995      -2.99500789E-06
   57.5999985      -1.97917007E-06
   57.7200012      -8.98388464E-07
   57.8400002       1.94824139E-07
   57.9599991       1.24987298E-06
   58.0800018       2.22094627E-06
   58.2000008       3.06932111E-06
   58.3199997       3.76498883E-06
   58.4399986       4.28755129E-06
   58.5600014       4.62640173E-06
   58.6800003       4.78026868E-06
   58.7999992       4.75624756E-06
   58.9199982       4.56845692E-06
   59.0400009       4.23648908E-06
   59.1599998       3.78379332E-06
   59.2799988       3.23612608E-06
   59.4000015       2.62016124E-06
   59.5200005       1.96231963E-06
   59.6399994       1.28784893E-06
   59.7599983       6.20145443E-07
   59.8800011      -1.97082155E-08
   60.0000000      -6.13232260E-07
   60.1199989      -1.14471095E-06
   60.2400017      -1.60126990E-06
   60.3600006      -1.97290569E-06
   60.4799995      -2.25249050E-06
   60.5999985      -2.43576346E-06
   60.7200012      -2.52131076E-06
   60.8400002      -2.51052279E-06
   60.9599991      -2.40752161E-06
   61.0800018      -2.21903883E-06
   61.2000008      -1.95423399E-06
   61.3199997      -1.62444144E-06
   61.4399986      -1.24284259E-06
   61.5600014      -8.24060010E-07
   61.6800003      -3.83681368E-07
   61.7999992       6.22764063E-08
   61.9199982       4.97944370E-07
   62.0400009       9.08197819E-07
   62.1599998       1.27924363E-06
   62.2799988       1.59916829E-06
   62.4000015       1.85841316E-06
   62.5200005       2.05014771E-06
   62.6399994       2.17051024E-06
   62.7599983       2.21869891E-06
   62.8800011       2.19689719E-06
   63.0000000       2.11003339E-06
   63.1199989       1.96538713E-06
   63.2400017       1.77206095E-06
   63.3600006       1.54035399E-06
   63.4799995       1.28107945E-06
   63.5999985       1.00487978E-06
   63.7200012       7.21589402E-07
   63.8400002       4.39701807E-07
   63.9599991       1.65985881E-07
   64.0800018      -9.47099608E-08
   64.1999969      -3.39446160E-07
   64.3199997      -5.66970868E-07
   64.4400024      -7.77309140E-07
   64.5599976      -9.71206532E-07
   64.6800003      -1.14948716E-06
   64.8000031      -1.31240506E-06
   64.9199982      -1.45907165E-06
   65.0400009      -1.58704358E-06
   65.1600037      -1.69214013E-06
   65.2799988      -1.76854064E-06
   65.4000015      -1.80917823E-06
   65.5199966      -1.80641689E-06
   65.6399994      -1.75295588E-06
   65.7600021      -1.64287451E-06
   65.8799973      -1.47270293E-06
   66.0000000      -1.24238875E-06
   66.1200027      -9.56027179E-07
   66.2399979      -6.22240975E-07
   66.3600006      -2.54121176E-07
   66.4800034       1.31310642E-07
   66.5999985       5.14110070E-07
   66.7200012       8.72820635E-07
   66.8399963       1.18617049E-06
   66.9599991       1.43489694E-06
   67.0800018       1.60351601E-06
   67.1999969       1.68184874E-06
   67.3199997       1.66613415E-06
   67.4400024       1.55959310E-06
   67.5599976       1.37236293E-06
   67.6800003       1.12078442E-06
   67.8000031       8.26090741E-07
   67.9199982       5.12608665E-07
   68.0400009       2.05640887E-07
   68.1600037      -7.07728347E-08
   68.2799988      -2.95994909E-07
   68.4000015      -4.54619084E-07
   68.5199966      -5.37804851E-07
   68.6399994      -5.43979695E-07
   68.7600021      -4.78836171E-07
   68.8799973      -3.54619431E-07
   69.0000000      -1.88774933E-07
   69.1200027      -2.09401430E-09
   69.2399979       1.83454915E-07
   69.3600006       3.46985900E-07
   69.4800034       4.70813887E-07
   69.5999985       5.42214764E-07
   69.7200012       5.54648977E-07
   69.8399963       5.08328412E-07
   69.9599991       4.10075671E-07
   70.0800018       2.72501154E-07
   70.1999969       1.12594478E-07
   70.3199997      -5.01140178E-08
   70.4400024      -1.95622150E-07
   70.5599976      -3.05536474E-07
   70.6800003      -3.64949017E-07
   70.8000031      -3.63922254E-07
   70.9199982      -2.98440767E-07
   71.0400009      -1.70749388E-07
   71.1600037       1.09342011E-08
   71.2799988       2.33278314E-07
   71.4000015       4.79154266E-07
   71.5199966       7.29256669E-07
   71.6399994       9.63848379E-07
   71.7600021       1.16444983E-06
   71.8799973       1.31531431E-06
   72.0000000       1.40456007E-06
   72.1200027       1.42488602E-06
   72.2399979       1.37383927E-06
   72.3600006       1.25365943E-06
   72.4800034       1.07076164E-06
   72.5999985       8.34949617E-07
   72.7200012       5.58465786E-07