  -30.0000000       0.00000000    
  -29.8799992       0.00000000    
  -29.7600002       0.00000000    
  -29.6399994       0.00000000    
  -29.5200005       8.04345319E-43
  -29.3999996       1.39569327E-41
  -29.2800007      -8.37990495E-41
  -29.1599998      -4.53249988E-40
  -29.0400009      -1.30460887E-41
  -28.9200001       3.56672498E-39
  -28.7999992       6.19175637E-39
  -28.6800003      -1.26415142E-38
  -28.5599995      -6.79691973E-38
  -28.4400005      -8.68547041E-38
  -28.3199997       1.57721164E-37
  -28.2000008       8.68610256E-37
  -28.0799999       1.63268338E-36
  -27.9599991       7.71287230E-37
  -27.8400002      -4.21327051E-36
  -27.7199993      -1.37951351E-35
  -27.6000004      -2.15829114E-35
  -27.4799995      -1.15307587E-35
  -27.3600006       3.55202279E-35
  -27.2399998       1.20714270E-34
  -27.1200008       1.97648722E-34
  -27.0000000       1.59277659E-34
  -26.8799992      -1.21328477E-34
  -26.7600002      -6.74127781E-34
  -26.6399994      -1.27474997E-33
  -26.5200005      -1.36702885E-33
  -26.3999996      -2.36358279E-34
  -26.2800007       2.46666120E-33
  -26.1599998       5.99563024E-33
  -26.0400009       8.05380404E-33
  -25.9200001       5.29983750E-33
  -25.7999992      -4.74687100E-33
  -25.6800003      -2.08065027E-32
  -25.5599995      -3.55352765E-32
  -25.4400005      -3.61869471E-32
  -25.3199997      -1.00394094E-32
  -25.2000008       4.60122255E-32
  -25.0799999       1.15868513E-31
  -24.9599991       1.61603860E-31
  -24.8400002       1.34245005E-31
  -24.7199993      -9.71699722E-34
  -24.6000004      -2.32891550E-31
  -24.4799995      -4.82972919E-31
  -24.3600006      -6.13105598E-31
  -24.2399998      -4.73404019E-31
  -24.1200008       1.79600520E-32
  -24.0000000       7.92899998E-31
  -23.8799992       1.59379580E-30
  -23.7600002       2.01614509E-30
  -23.6399994       1.64678897E-30
  -23.5200005       2.68197406E-31
  -23.3999996      -1.94381946E-30
  -23.2800007      -4.32552618E-30
  -23.1599998      -5.81961449E-30
  -23.0400009      -5.29381041E-30
  -22.9200001      -2.03650785E-30
  -22.7999992       3.71281828E-30
  -22.6800003       1.04189146E-29
  -22.5599995       1.53375479E-29
  -22.4400005       1.52141349E-29
  -22.3199997       7.59243714E-30
  -22.2000008      -7.55776965E-30
  -22.0799999      -2.65105792E-29
  -21.9599991      -4.15858229E-29
  -21.8400002      -4.28408521E-29
  -21.7199993      -2.18891688E-29
  -21.6000004       2.28805006E-29
  -21.4799995       8.15657031E-29
  -21.3600006       1.31211176E-28
  -21.2399998       1.40082527E-28
  -21.1200008       7.88501057E-29
  -21.0000000      -6.31196336E-29
  -20.8799992      -2.61699790E-28
  -20.7600002      -4.50220406E-28
  -20.6399994      -5.28190765E-28
  -20.5200005      -3.91050999E-28
  -20.3999996       2.21832493E-29
  -20.2800007       6.76410189E-28
  -20.1599998       1.40472390E-27
  -20.0400009       1.91405408E-27
  -19.9200001       1.85009530E-27
  -19.7999992       9.21992642E-28
  -19.6800003      -9.38205891E-28
  -19.5599995      -3.43251330E-27
  -19.4400005      -5.83796243E-27
  -19.3199997      -7.09517984E-27
  -19.2000008      -6.07718373E-27
  -19.0799999      -2.01415429E-27
  -18.9599991       5.02155495E-27
  -18.8400002       1.37312796E-26
  -18.7199993       2.15011250E-26
  -18.6000004       2.47786742E-26
  -18.4799995       1.99896583E-26
  -18.3600006       4.90347773E-27
  -18.2399998      -1.98507233E-26
  -18.1200008      -4.96116380E-26
  -18.0000000      -7.54609612E-26
  -17.8799992      -8.54932135E-26
  -17.7600002      -6.78417790E-26
  -17.6399994      -1.51975394E-26
  -17.5200005       7.01346957E-26
  -17.3999996       1.72279259E-25
  -17.2800007       2.60978631E-25
  -17.1599998       2.95812042E-25
  -17.0400009       2.36363854E-25
  -16.9200001       5.74646343E-26
  -16.7999992      -2.33730291E-25
  -16.6800003      -5.84345412E-25
  -16.5599995      -8.92905644E-25
  -16.4400005      -1.02317725E-24
  -16.3199997      -8.37691395E-25
  -16.2000008      -2.48039119E-25
  -16.0799999       7.28524041E-25
  -15.9600000       1.92387476E-24
  -15.8400002       3.00712870E-24
  -15.7200003       3.52622560E-24
  -15.6000004       3.01341789E-24
  -15.4799995       1.14711203E-24
  -15.3599997      -2.06114701E-24
  -15.2399998      -6.10944451E-24
  -15.1199999      -9.94835170E-24
  -15.0000000      -1.20921057E-23
  -14.8800001      -1.09391223E-23
  -14.7600002      -5.28818114E-24
  -14.6400003       5.03934956E-24
  -14.5200005       1.86413591E-23
  -14.3999996       3.22695639E-23
  -14.2799997       4.10908779E-23
  -14.1599998       3.96346438E-23
  -14.0400000       2.34182053E-23
  -13.9200001      -8.99928261E-24
  -13.8000002      -5.40529322E-23
  -13.6800003      -1.02028057E-22
  -13.5600004      -1.37521402E-22
  -13.4399996      -1.42101163E-22
  -13.3199997      -9.92739734E-23
  -13.1999998      -1.12095162E-24
  -13.0799999       1.44904231E-22
  -12.9600000       3.11273431E-22
  -12.8400002       4.50361675E-22
  -12.7200003       5.01283922E-22
  -12.6000004       4.04444291E-22
  -12.4799995       1.22435100E-22
  -12.3599997      -3.36844137E-22
  -12.2399998      -9.01615256E-22
  -12.1199999      -1.43053627E-21
  -12.0000000      -1.72774463E-21
  -11.8800001      -1.58314110E-21
  -11.7600002      -8.36081639E-22
  -11.6400003       5.47955962E-22
  -11.5200005       2.40721695E-21
  -11.3999996       4.34621293E-21
  -11.2799997       5.75825587E-21
  -11.1599998       5.92791231E-21
  -11.0400000       4.21611373E-21
  -10.9200001       3.04889161E-22
  -10.8000002      -5.55102976E-21
  -10.6800003      -1.23443281E-20
  -10.5600004      -1.82974129E-20
  -10.4399996      -2.10854364E-20
  -10.3199997      -1.83362322E-20
  -10.1999998      -8.37097571E-21
  -10.0799999       8.94320698E-21
  -9.96000004       3.14498302E-20
  -9.84000015       5.43527844E-20
  -9.72000027       7.05441404E-20
  -9.60000038       7.18071418E-20
  -9.47999954       5.09035155E-20
  -9.35999966       4.28280921E-21
  -9.23999977      -6.51565709E-20
  -9.11999989      -1.46088510E-19
  -9.00000000      -2.18516354E-19
  -8.88000011      -2.56098271E-19
  -8.76000023      -2.31445161E-19
  -8.64000034      -1.24061711E-19
  -8.52000046       7.03435492E-20
  -8.39999962       3.31413299E-19
  -8.27999973       6.09486838E-19
  -8.15999985       8.27767549E-19
  -8.03999996       8.93582329E-19
  -7.92000008       7.19253085E-19
  -7.80000019       2.50457210E-19
  -7.67999983      -5.03152305E-19
  -7.55999994      -1.44315255E-18
  -7.44000006      -2.37312989E-18
  -7.32000017      -3.01427696E-18
  -7.19999981      -3.05165602E-18
  -7.07999992      -2.21050225E-18
  -6.96000004      -3.53019282E-19
  -6.84000015       2.42368655E-18
  -6.71999979       5.71610548E-18
  -6.59999990       8.80053005E-18
  -6.48000002       1.07045658E-17
  -6.36000013       1.03786310E-17
  -6.23999977       6.95997791E-18
  -6.11999989       9.29176118E-20
  -6.00000000      -9.76119528E-18
  -5.88000011      -2.11143162E-17
  -5.76000023      -3.14405527E-17
  -5.63999987      -3.74460759E-17
  -5.51999998      -3.56584062E-17
  -5.40000010      -2.33017622E-17
  -5.28000021       6.65440178E-19
  -5.15999985       3.45665576E-17
  -5.03999996       7.33611199E-17
  -4.92000008       1.08642272E-16
  -4.80000019       1.29528093E-16
  -4.67999983       1.24557518E-16
  -4.55999994       8.44794530E-17
  -4.44000006       5.54906876E-18
  -4.32000017      -1.07332620E-16
  -4.19999981      -2.38506055E-16
  -4.07999992      -3.61397354E-16
  -3.96000004      -4.41092831E-16
  -3.83999991      -4.40008549E-16
  -3.72000003      -3.26372356E-16
  -3.59999990      -8.44291803E-17
  -3.48000002       2.75540956E-16
  -3.35999990       7.09941300E-16
  -3.24000001       1.14009904E-15
  -3.11999989       1.45845108E-15
  -3.00000000       1.54402269E-15
  -2.88000011       1.28676904E-15
  -2.75999999       6.18072530E-16
  -2.64000010      -4.57727817E-16
  -2.51999998      -1.83790522E-15
  -2.40000010      -3.31013467E-15
  -2.27999997      -4.56303933E-15
  -2.16000009      -5.22347685E-15
  -2.03999996      -4.92099884E-15
  -1.91999996      -3.37378009E-15
  -1.79999995      -4.83533787E-16
  -1.67999995       3.57919193E-15
  -1.55999994       8.32170738E-15
  -1.44000006       1.29301451E-14
  -1.32000005       1.63418338E-14
  -1.20000005       1.73956546E-14
  -1.08000004       1.50518568E-14
 -0.959999979       8.65501145E-15
 -0.839999974      -1.80333992E-15
 -0.720000029      -1.54785276E-14
 -0.600000024      -3.05835001E-14
 -0.479999989      -4.44694567E-14
 -0.360000014      -5.39084937E-14
 -0.239999995      -5.55772842E-14
 -0.119999997      -4.66987289E-14
  -1.11022302E-15  -2.57544671E-14
  0.119999997       6.85636028E-15
  0.239999995       4.83582528E-14
  0.360000014       9.34833604E-14
  0.479999989       1.34808533E-13
  0.600000024       1.63591878E-13
  0.720000029       1.71067519E-13
  0.839999974       1.50056982E-13
  0.959999979       9.66613129E-14
   1.08000004       1.17301146E-14
   1.20000005      -9.82176715E-14
   1.32000005      -2.20906884E-13
   1.44000006      -3.39233036E-13
   1.55999994      -4.33218430E-13
   1.67999995      -4.82814580E-13
   1.79999995      -4.71165750E-13
   1.91999996      -3.87792690E-13
   2.03999996      -2.31083815E-13
   2.16000009      -9.53083505E-15
   2.27999997       2.58666081E-13
   2.40000010       5.47692534E-13
   2.51999998       8.27593961E-13
   2.64000010       1.06842920E-12
   2.75999999       1.24410367E-12
   2.88000011       1.33479382E-12
   3.00000000       1.32705511E-12
   3.11999989       1.21120030E-12
   3.24000001       9.76328068E-13
   3.35999990       6.04333369E-13
   3.48000002       6.51820313E-14
   3.59999990      -6.83621887E-13
   3.72000003      -1.69036356E-12
   3.83999991      -2.99291169E-12
   3.96000004      -4.59235861E-12
   4.07999992      -6.41845171E-12
   4.19999981      -8.29201291E-12
   4.32000017      -9.89297880E-12
   4.44000006      -1.07455928E-11
   4.55999994      -1.02337028E-11
   4.67999983      -7.65831148E-12
   4.80000019      -2.34557968E-12
   4.92000008       6.19386573E-12
   5.03999996       1.80642203E-11
   5.15999985       3.27653252E-11
   5.28000021       4.89918418E-11
   5.40000010       6.44996140E-11
   5.51999998       7.60952551E-11
   5.63999987       7.98039343E-11
   5.76000023       7.12588044E-11
   5.88000011       4.63308905E-11
   6.00000000       1.98114528E-12
   6.11999989      -6.27304805E-11
   6.23999977      -1.45597312E-10
   6.36000013      -2.40348325E-10
   6.48000002      -3.36068395E-10
   6.59999990      -4.17182455E-10
   6.71999979      -4.64213862E-10
   6.84000015      -4.55475463E-10
   6.96000004      -3.69752368E-10
   7.07999992      -1.89897223E-10
   7.19999981       9.29134061E-11
   7.32000017       4.74701389E-10
   7.44000006       9.34608835E-10
   7.55999994       1.43198153E-09
   7.67999983       1.90544847E-09
   7.80000019       2.27479791E-09
   7.92000008       2.44629139E-09
   8.03999996       2.32174968E-09
   8.15999985       1.81130766E-09
   8.27999973       8.49172621E-10
   8.39999962      -5.88898430E-10
   8.52000046      -2.46830689E-09
   8.64000034      -4.68093964E-09
   8.76000023      -7.03590164E-09
   8.88000011      -9.25848820E-09
   9.00000000      -1.09999760E-08
   9.11999989      -1.18600711E-08
   9.23999977      -1.14227809E-08
   9.35999966      -9.30496569E-09
   9.47999954      -5.21504884E-09
   9.60000038       9.82527504E-10
   9.72000027       9.20334831E-09
   9.84000015       1.90873717E-08
   9.96000004       2.99603293E-08
   10.0799999       4.08211882E-08
   10.1999998       5.03637523E-08
   10.3199997       5.70389282E-08
   10.4399996       5.91607829E-08
   10.5600004       5.50558426E-08
   10.6800003       4.32501928E-08
   10.8000002       2.26836772E-08
   10.9200001      -7.06463421E-09
   11.0400000      -4.55602489E-08
   11.1599998      -9.13302856E-08
   11.2799997      -1.41739704E-07
   11.3999996      -1.92952228E-07
   11.5200005      -2.39999309E-07
   11.6400003      -2.76974191E-07
   11.7600002      -2.97361794E-07
   11.8800001      -2.94503792E-07
   12.0000000      -2.62187740E-07
   12.1199999      -1.95336199E-07
   12.2399998      -9.07597126E-08
   12.3599997       5.20738794E-08
   12.4799995       2.30309880E-07
   12.6000004       4.37079308E-07
   12.7200003       6.61036665E-07
   12.8400002       8.86124724E-07
   12.9600000       1.09161806E-06
   13.0799999       1.25248641E-06
   13.1999998       1.34009929E-06
   13.3199997       1.32327739E-06
   13.4399996       1.16966589E-06
   13.5600004       8.47388264E-07
   13.6800003       3.26912243E-07
   13.8000002      -4.16961058E-07
   13.9200001      -1.40308975E-06
   14.0400000      -2.64208143E-06
   14.1599998      -4.13460157E-06
   14.2799997      -5.87002205E-06
   14.3999996      -7.82550887E-06
   14.5200005      -9.96565632E-06
   14.6400003      -1.22427064E-05
   14.7600002      -1.45974263E-05
   14.8800001      -1.69606119E-05
   15.0000000      -1.92552016E-05
   15.1199999      -2.13989297E-05
   15.2399998      -2.33074206E-05
   15.3599997      -2.48975884E-05
   15.4799995      -2.60911856E-05
   15.6000004      -2.68183358E-05
   15.7200003      -2.70208875E-05
   15.8400002      -2.66553980E-05
   15.9600000      -2.56956100E-05
   16.0799999      -2.41342623E-05
   16.2000008      -2.19841495E-05
   16.3199997      -1.92783536E-05
   16.4400005      -1.60696127E-05
   16.5599995      -1.24288381E-05
   16.6800003      -8.44284023E-06
   16.7999992      -4.21135746E-06
   16.9200001       1.56485839E-07
   17.0400009       4.54613200E-06
   17.1599998       8.84178007E-06
   17.2800007       1.29306191E-05
   17.3999996       1.67069174E-05
   17.5200005       2.00757968E-05
   17.6399994       2.29565121E-05
   17.7600002       2.52851187E-05
   17.8799992       2.70164328E-05
   18.0000000       2.81251705E-05
   18.1200008       2.86063078E-05
   18.2399998       2.84746129E-05
   18.3600006       2.77634481E-05
   18.4799995       2.65228846E-05
   18.6000004       2.48172546E-05
   18.7199993       2.27222827E-05
   18.8400002       2.03219024E-05
   18.9599991       1.77049315E-05
   19.0799999       1.49617481E-05
   19.2000008       1.21810699E-05
   19.3199997       9.44700696E-06
   19.4400005       6.83643066E-06
   19.5599995       4.41679094E-06
   19.6800003       2.24439441E-06
   19.7999992       3.63207391E-07
   19.9200001      -1.19582705E-06
   20.0400009      -2.41496082E-06
   20.1599998      -3.28933220E-06
   20.2800007      -3.82622602E-06
   20.3999996      -4.04395678E-06
   20.5200005      -3.97045142E-06
   20.6399994      -3.64158996E-06
   20.7600002      -3.09939583E-06
   20.8799992      -2.39014139E-06
   21.0000000      -1.56243755E-06
   21.1200008      -6.65381151E-07
   21.2399998       2.53193150E-07
   21.3600006       1.14830243E-06
   21.4799995       1.97921190E-06
   21.6000004       2.71060867E-06
   21.7199993       3.31353453E-06
   21.8400002       3.76606863E-06
   21.9599991       4.05375522E-06
   22.0799999       4.16977673E-06
   22.2000008       4.11488509E-06
   22.3199997       3.89709021E-06
   22.4400005       3.53112910E-06
   22.5599995       3.03771890E-06
   22.6800003       2.44262151E-06
   22.7999992       1.77553432E-06
   22.9200001       1.06883726E-06
   23.0400009       3.56229947E-07
   23.1599998      -3.28702242E-07
   23.2800007      -9.53942845E-07
   23.3999996      -1.49046662E-06
   23.5200005      -1.91356776E-06
   23.6399994      -2.20403444E-06
   23.7600002      -2.34910499E-06
   23.8799992      -2.34314984E-06
   24.0000000      -2.18803234E-06
   24.1200008      -1.89311197E-06
   24.2399998      -1.47487390E-06
   24.3600006      -9.56184522E-07
   24.4799995      -3.65199782E-07
   24.6000004       2.66031094E-07
   24.7199993       9.03199577E-07
   24.8400002       1.51152790E-06
   24.9599991       2.05761989E-06
   25.0799999       2.51126994E-06
   25.2000008       2.84712746E-06
   25.3199997       3.04611581E-06
   25.4400005       3.09652523E-06
   25.5599995       2.99470344E-06
   25.6800003       2.74530248E-06
   25.7999992       2.36105734E-06
   25.9200001       1.86210150E-06
   26.0400009       1.27485714E-06
   26.1599998       6.30554780E-07
   26.2800007      -3.65300394E-08
   26.3999996      -6.91024979E-07
   26.5200005      -1.29847740E-06
   26.6399994      -1.82732197E-06
   26.7600002      -2.25067947E-06
   26.8799992      -2.54788097E-06
   27.0000000      -2.70562214E-06
   27.1200008      -2.71867907E-06
   27.2399998      -2.59014132E-06
   27.3600006      -2.33114724E-06
   27.4799995      -1.96014162E-06
   27.6000004      -1.50169933E-06
   27.7199993      -9.84992539E-07
   27.8400002      -4.42000413E-07
   27.9599991       9.44265608E-08
   28.0799999       5.92521189E-07
   28.2000008       1.02344950E-06
   28.3199997       1.36293886E-06
   28.4400005       1.59258275E-06
   28.5599995       1.70074441E-06
   28.6800003       1.68300971E-06
   28.7999992       1.54217014E-06
   28.9200001       1.28775321E-06
   29.0400009       9.35145238E-07
   29.1599998       5.04383991E-07
   29.2800007       1.87157951E-08
   29.3999996      -4.96969335E-07
   29.5200005      -1.01770888E-06
   29.6399994      -1.51993345E-06
   29.7600002      -1.98272778E-06
   29.8799992      -2.38880921E-06
   30.0000000      -2.72517309E-06
   30.1200008      -2.98338409E-06
   30.2399998      -3.15952207E-06
   30.3600006      -3.25382075E-06
   30.4799995      -3.27005705E-06
   30.6000004      -3.21476728E-06
   30.7199993      -3.09637267E-06
   30.8400002      -2.92430241E-06
   30.9599991      -2.70818282E-06
   31.0799999      -2.45716683E-06
   31.2000008      -2.17943784E-06
   31.3199997      -1.88192121E-06
   31.4400005      -1.57020042E-06
   31.5599995      -1.24862493E-06
   31.6800003      -9.20573768E-07
   31.7999992      -5.88830460E-07
   31.9200001      -2.56015824E-07
   32.0400009       7.49751194E-08
   32.1599998       4.00585094E-07
   32.2799988       7.16298473E-07
   32.4000015       1.01647368E-06
   32.5200005       1.29432533E-06
   32.6399994       1.54206634E-06
   32.7599983       1.75120499E-06
   32.8800011       1.91298091E-06
   33.0000000       2.01891112E-06
   33.1199989       2.06140385E-06
   33.2400017       2.03440118E-06
   33.3600006       1.93399114E-06
   33.4799995       1.75894559E-06
   33.5999985       1.51113477E-06
   33.7200012       1.19577396E-06
   33.8400002       8.21476704E-07
   33.9599991       4.00092460E-07
   34.0800018      -5.36733502E-08
   34.2000008      -5.22846392E-07
   34.3199997      -9.88951456E-07
   34.4399986      -1.43292186E-06
   34.5600014      -1.83609700E-06
   34.6800003      -2.18124774E-06
   34.7999992      -2.45356114E-06
   34.9199982      -2.64151754E-06
   35.0400009      -2.73759588E-06
   35.1599998      -2.73874753E-06
   35.2799988      -2.64660184E-06
   35.4000015      -2.46737363E-06
   35.5200005      -2.21146934E-06
   35.6399994      -1.89280956E-06
   35.7599983      -1.52791063E-06
   35.8800011      -1.13478029E-06
   36.0000000      -7.31711623E-07
   36.1199989      -3.36061305E-07
   36.2400017       3.68899187E-08
   36.3600006       3.74903493E-07
   36.4799995       6.69492636E-07
   36.5999985       9.16313354E-07
   36.7200012       1.11519864E-06
   36.8400002       1.26982980E-06
   36.9599991       1.38706912E-06
   37.0800018       1.47601372E-06
   37.2000008       1.54685188E-06
   37.3199997       1.60962918E-06
   37.4399986       1.67303835E-06
   37.5600014       1.74334878E-06
   37.6800003       1.82358099E-06
   37.7999992       1.91300774E-06
   37.9199982       2.00703903E-06
   38.0400009       2.09750556E-06
   38.1599998       2.17332740E-06
   38.2799988       2.22150697E-06
   38.4000015       2.22836388E-06
   38.5200005       2.18090099E-06
   38.6399994       2.06816912E-06
   38.7599983       1.88251249E-06
   38.8800011       1.62056676E-06
   39.0000000       1.28391639E-06
   39.1199989       8.79339268E-07
   39.2400017       4.18608209E-07
   39.3600006      -8.21428472E-08
   39.4799995      -6.03437968E-07
   39.5999985      -1.12377768E-06
   39.7200012      -1.62114168E-06
   39.8400002      -2.07453991E-06
   39.9599991      -2.46547370E-06
   40.0800018      -2.77917138E-06
   40.2000008      -3.00548709E-06
   40.3199997      -3.13938267E-06
   40.4399986      -3.18095636E-06
   40.5600014      -3.13502164E-06
   40.6800003      -3.01029172E-06
   40.7999992      -2.81826442E-06
   40.9199982      -2.57192960E-06
   41.0400009      -2.28444560E-06
   41.1599998      -1.96792712E-06
   41.2799988      -1.63247773E-06
   41.4000015      -1.28556894E-06
   41.5200005      -9.31828993E-07
   41.6399994      -5.73252919E-07
   41.7599983      -2.09801158E-07
   41.8800011       1.59698658E-07
   42.0000000       5.36464029E-07
   42.1199989       9.20627087E-07
   42.2400017       1.31020897E-06
   42.3600006       1.70033786E-06
   42.4799995       2.08282017E-06
   42.5999985       2.44613580E-06
   42.7200012       2.77588060E-06
   42.8400002       3.05562412E-06
   42.9599991       3.26811414E-06
   43.0800018       3.39670396E-06
   43.2000008       3.42687190E-06
   43.3199997       3.34767583E-06
   43.4399986       3.15300463E-06
   43.5600014       2.84250109E-06
   43.6800003       2.42206761E-06
   43.7999992       1.90390813E-06
   43.9199982       1.30610067E-06
   44.0400009       6.51737878E-07
   44.1599998      -3.22892006E-08
   44.2799988      -7.16766749E-07
   44.4000015      -1.37177813E-06
   44.5200005      -1.96835208E-06
   44.6399994      -2.48002925E-06
   44.7599983      -2.88425554E-06
   44.8800011      -3.16352612E-06
   45.0000000      -3.30623993E-06
   45.1199989      -3.30722810E-06
   45.2400017      -3.16796149E-06
   45.3600006      -2.89644095E-06
   45.4799995      -2.50679250E-06
   45.5999985      -2.01859939E-06
   45.7200012      -1.45599540E-06
   45.8400002      -8.46561022E-07
   45.9599991      -2.20056549E-07
   46.0800018       3.92968246E-07
   46.2000008       9.62636591E-07
   46.3199997       1.46122647E-06
   46.4399986       1.86460443E-06
   46.5600014       2.15354044E-06
   46.6800003       2.31482204E-06
   46.7999992       2.34209438E-06
   46.9199982       2.23634606E-06
   47.0400009       2.00599357E-06
   47.1599998       1.66651887E-06
   47.2799988       1.23966015E-06
   47.4000015       7.52181734E-07
   47.5200005       2.34281373E-07
   47.6399994      -2.82267081E-07
   47.7599983      -7.66117353E-07
   47.8800011      -1.18835976E-06
   48.0000000      -1.52439088E-06
   48.1199989      -1.75549928E-06
   48.2400017      -1.87004878E-06
   48.3600006      -1.86416173E-06
   48.4799995      -1.74184834E-06
   48.5999985      -1.51457130E-06
   48.7200012      -1.20027869E-06
   48.8400002      -8.21985793E-07
   48.9599991      -4.06017989E-07
   49.0800018       1.99436858E-08
   49.2000008       4.28857476E-07
   49.3199997       7.96201391E-07
   49.4399986       1.10159408E-06
   49.5600014       1.33003709E-06
   49.6800003       1.47269213E-06
   49.7999992       1.52714472E-06
   49.9199982       1.49715515E-06
   50.0400009       1.39193139E-06
   50.1599998       1.22500478E-06
   50.2799988       1.01281557E-06
   50.4000015       7.73142517E-07
   50.5200005       5.23516121E-07
   50.6399994       2.79760457E-07
   50.7599983       5.47890302E-08
   50.8800011      -1.42242996E-07
   51.0000000      -3.06362153E-07
   51.1199989      -4.36751009E-07
   51.2400017      -5.36292760E-07
   51.3600006      -6.10747804E-07
   51.4799995      -6.67662334E-07
   51.5999985      -7.15133638E-07
   51.7200012      -7.60572959E-07
   51.8400002      -8.09603989E-07
   51.9599991      -8.65219533E-07
   52.0800018      -9.27288966E-07
   52.2000008      -9.92467790E-07
   52.3199997      -1.05451682E-06
   52.4399986      -1.10498945E-06
   52.5600014      -1.13420253E-06
   52.6800003      -1.13237900E-06
   52.7999992      -1.09082589E-06
   52.9199982      -1.00301463E-06
   53.0400009      -8.65444576E-07
   53.1599998      -6.78198148E-07
   53.2799988      -4.45137545E-07
   53.4000015      -1.73736709E-07
   53.5200005       1.25416008E-07
   53.6399994       4.39371490E-07
   53.7599983       7.53734867E-07
   53.8800011       1.05363551E-06
   54.0000000       1.32465379E-06
   54.1199989       1.55362000E-06
   54.2400017       1.72923399E-06
   54.3600006       1.84248086E-06
   54.4799995       1.88685340E-06
   54.5999985       1.85841463E-06
   54.7200012       1.75575326E-06
   54.8400002       1.57988700E-06
   54.9599991       1.33416427E-06
   55.0800018       1.02419745E-06
   55.2000008       6.57839166E-07
   55.3199997       2.45185475E-07
   55.4399986      -2.01431732E-07
   55.5600014      -6.67515110E-07
   55.6800003      -1.13659530E-06
   55.7999992      -1.59060050E-06
   55.9199982      -2.01043667E-06
   56.0400009      -2.37678819E-06
   56.1599998      -2.67111341E-06
   56.2799988      -2.87677813E-06
   56.4000015      -2.98024202E-06
   56.5200005      -2.97218753E-06
   56.6399994      -2.84848056E-06
   56.7599983      -2.61084961E-06
   56.8800011      -2.26719317E-06
   57.0000000      -1.83146062E-06
   57.1199989      -1.32308060E-06
   57.2400017      -7.65965808E-07
   57.3600006      -1.87155692E-07
   57.4799995       3.84800018E-07
   57.5999985       9.21593085E-07
   57.7200012       1.39690587E-06
   57.8400002       1.78802350E-06
   57.9599991       2.07718927E-06
   58.0800018       2.25260760E-06
   58.2000008       2.30903720E-06
   58.3199997       2.24794530E-06
   58.4399986       2.07724133E-06
   58.5600014       1.81062387E-06
   58.6800003       1.46661864E-06
   58.7999992       1.06738230E-06
   58.9199982       6.37367350E-07
   59.0400009       2.01931186E-07
   59.1599998      -2.14028447E-07
   59.2799988      -5.87351565E-07
   59.4000015      -8.97755911E-07
   59.5200005      -1.12880502E-06
   59.6399994      -1.26868099E-06
   59.7599983      -1.31074296E-06
   59.8800011      -1.25385827E-06
   60.0000000      -1.10248993E-06
   60.1199989      -8.66523067E-07
   60.2400017      -5.60816659E-07
   60.3600006      -2.04472883E-07
   60.4799995       1.80174368E-07
   60.5999985       5.68826124E-07
   60.7200012       9.36694732E-07
   60.8400002       1.26011412E-06
   60.9599991       1.51818517E-06
   61.0800018       1.69433622E-06
   61.2000008       1.77766378E-06
   61.3199997       1.76393064E-06
   61.4399986       1.65610152E-06
   61.5600014       1.46433922E-06
   61.6800003       1.20541813E-06
   61.7999992       9.01570331E-07
   61.9199982       5.78830907E-07
   62.0400009       2.64999613E-07
   62.1599998      -1.26208048E-08
   62.2799988      -2.29521419E-07
   62.4000015      -3.66122862E-07
   62.5200005      -4.09563029E-07
   62.6399994      -3.54975782E-07
   62.7599983      -2.06143355E-07
   62.8800011       2.45434304E-08
   63.0000000       3.16825549E-07
   63.1199989       6.43967951E-07
   63.2400017       9.74703539E-07
   63.3600006       1.27558530E-06
   63.4799995       1.51357199E-06
   63.5999985       1.65865788E-06
   63.7200012       1.68634847E-06
   63.8400002       1.57980128E-06
   63.9599991       1.33146682E-06
   64.0800018       9.44105011E-07
   64.1999969       4.31087273E-07
   64.3199997      -1.84051530E-07
   64.4400024      -8.68802260E-07
   64.5599976      -1.58355010E-06
   64.6800003      -2.28401609E-06
   64.8000031      -2.92411914E-06
   64.9199982      -3.45908597E-06
   65.0400009      -3.84859732E-06
   65.1600037      -4.05975879E-06
   65.2799988      -4.06968957E-06
   65.4000015      -3.86752299E-06
   65.5199966      -3.45566650E-06
   65.6399994      -2.85018268E-06
   65.7600021      -2.08023198E-06
   65.8799973      -1.18656556E-06
   66.0000000      -2.19134037E-07
   66.1200027       7.66060680E-07
   66.2399979       1.71066870E-06
   66.3600006       2.55800137E-06
   66.4800034       3.25705287E-06
   66.5999985       3.76622665E-06
   66.7200012       4.05646551E-06
   66.8399963       4.11351448E-06
   66.9599991       3.93910796E-06
   67.0800018       3.55095290E-06
   67.1999969       2.98146983E-06
   67.3199997       2.27537089E-06
   67.4400024       1.48623690E-06
   67.5599976       6.72362717E-07
   67.6800003      -1.07797945E-07
   67.8000031      -8.00213456E-07
   67.9199982      -1.35949495E-06
   68.0400009      -1.75239700E-06
   68.1600037      -1.96029646E-06
   68.2799988      -1.98043222E-06
   68.4000015      -1.82580027E-06
   68.5199966      -1.52371194E-06
   68.6399994      -1.11314569E-06
   68.7600021      -6.41127542E-07
   68.8799973      -1.58459542E-07
   69.0000000       2.84824580E-07
   69.1200027       6.43880639E-07
   69.2399979       8.82968720E-07
   69.3600006       9.78527851E-07
   69.4800034       9.21158403E-07
   69.5999985       7.16355316E-07
   69.7200012       3.83952369E-07
   69.8399963      -4.36552057E-08
   69.9599991      -5.24338816E-07
   70.0800018      -1.00986017E-06
   70.1999969      -1.44997966E-06
   70.3199997      -1.79670531E-06
   70.4400024      -2.00834529E-06
   70.5599976      -2.05304377E-06
   70.6800003      -1.91154322E-06
   70.8000031      -1.57897148E-06
   70.9199982      -1.06553705E-06
   71.0400009      -3.96097505E-07
   71.1600037       3.91359492E-07
   71.2799988       1.24820531E-06
   71.4000015       2.11845145E-06
   71.5199966       2.94259712E-06
   71.6399994       3.66177665E-06
   71.7600021       4.22192807E-06
   71.8799973       4.57769556E-06
   72.0000000       4.69579163E-06
   72.1200027       4.55758027E-06
   72.2399979       4.16068633E-06
   72.3600006       3.51949598E-06
   72.4800034       2.66449865E-06
   72.5999985       1.64049493E-06
   72.7200012       5.03778551E-07