  -30.0000000       0.00000000    
  -29.8799992       0.00000000    
  -29.7600002       0.00000000    
  -29.6399994       0.00000000    
  -29.5200005       0.00000000    
  -29.3999996       0.00000000    
  -29.2800007      -3.41200042E-25
  -29.1599998      -3.98543771E-24
  -29.0400009      -2.26207963E-23
  -28.9200001      -8.10213666E-23
  -28.7999992      -1.95307685E-22
  -28.6800003      -2.90192518E-22
  -28.5599995      -6.49496068E-23
  -28.4400005       1.05592049E-21
  -28.3199997       3.62278290E-21
  -28.2000008       7.32136995E-21
  -28.0799999       9.85768180E-21
  -27.9599991       6.53420258E-21
  -27.8400002      -8.14417393E-21
  -27.7199993      -3.61845506E-20
  -27.6000004      -7.04195787E-20
  -27.4799995      -9.09594103E-20
  -27.3600006      -6.82169777E-20
  -27.2399998       2.47967761E-20
  -27.1200008       1.92256161E-19
  -27.0000000       3.93328750E-19
  -26.8799992       5.27660839E-19
  -26.7600002       4.41322984E-19
  -26.6399994      -3.07942023E-20
  -26.5200005      -9.70493273E-19
  -26.3999996      -2.22922032E-18
  -26.2800007      -3.27153655E-18
  -26.1599998      -3.12268043E-18
  -26.0400009      -5.94039033E-19
  -25.9200001       5.06556060E-18
  -25.7999992       1.31357712E-17
  -25.6800003       2.04143841E-17
  -25.5599995       2.10344254E-17
  -25.4400005       8.04819439E-18
  -25.3199997      -2.27443732E-17
  -25.2000008      -6.74541040E-17
  -25.0799999      -1.09642248E-16
  -24.9599991      -1.20432269E-16
  -24.8400002      -6.66778777E-17
  -24.7199993       7.19306930E-17
  -24.6000004       2.80863023E-16
  -24.4799995       4.93584151E-16
  -24.3600006       5.92519770E-16
  -24.2399998       4.39524814E-16
  -24.1200008      -6.22232124E-17
  -24.0000000      -8.89005653E-16
  -23.8799992      -1.83167402E-15
  -23.7600002      -2.48740648E-15
  -23.6399994      -2.34502046E-15
  -23.5200005      -9.73737959E-16
  -23.3999996       1.72075675E-15
  -23.2800007       5.26096822E-15
  -23.1599998       8.50618777E-15
  -23.0400009       9.82192639E-15
  -22.9200001       7.56256850E-15
  -22.7999992       8.00500557E-16
  -22.6800003      -9.90845081E-15
  -22.5599995      -2.20460331E-14
  -22.4400005      -3.12792564E-14
  -22.3199997      -3.24491885E-14
  -22.2000008      -2.13424893E-14
  -22.0799999       3.17227201E-15
  -21.9599991       3.73863233E-14
  -21.8400002       7.22490711E-14
  -21.7199993       9.48186909E-14
  -21.6000004       9.18156542E-14
  -21.4799995       5.46217700E-14
  -21.3600006      -1.57588498E-14
  -21.2399998      -1.05760866E-13
  -21.1200008      -1.90176786E-13
  -21.0000000      -2.37811832E-13
  -20.8799992      -2.21123833E-13
  -20.7600002      -1.27269384E-13
  -20.6399994       3.33328878E-14
  -20.5200005       2.24885160E-13
  -20.3999996       3.92954115E-13
  -20.2800007       4.79520286E-13
  -20.1599998       4.42317109E-13
  -20.0400009       2.71860767E-13
  -19.9200001      -7.64652852E-16
  -19.7999992      -3.09743632E-13
  -19.6800003      -5.73429542E-13
  -19.5599995      -7.20220758E-13
  -19.4400005      -7.11633281E-13
  -19.3199997      -5.53022146E-13
  -19.2000008      -2.87127662E-13
  -19.0799999       2.67085124E-14
  -18.9599991       3.37554041E-13
  -18.8400002       6.18971725E-13
  -18.7199993       8.66574336E-13
  -18.6000004       1.07691818E-12
  -18.4799995       1.21905849E-12
  -18.3600006       1.21760534E-12
  -18.2399998       9.64595049E-13
  -18.1200008       3.65557221E-13
  -18.0000000      -5.93275212E-13
  -17.8799992      -1.78627230E-12
  -17.7600002      -2.93337360E-12
  -17.6399994      -3.65255656E-12
  -17.5200005      -3.57729449E-12
  -17.3999996      -2.50470868E-12
  -17.2800007      -5.17266351E-13
  -17.1599998       1.98030156E-12
  -17.0400009       4.34206057E-12
  -16.9200001       5.86858513E-12
  -16.7999992       6.04324620E-12
  -16.6800003       4.73044997E-12
  -16.5599995       2.25385032E-12
  -16.4400005      -6.87796879E-13
  -16.3199997      -3.24828098E-12
  -16.2000008      -4.72744760E-12
  -16.0799999      -4.82147482E-12
  -15.9600000      -3.73144267E-12
  -15.8400002      -2.08240131E-12
  -15.7200003      -6.77061326E-13
  -15.6000004      -1.73320627E-13
  -15.4799995      -8.07254654E-13
  -15.3599997      -2.26969073E-12
  -15.2399998      -3.78986686E-12
  -15.1199999      -4.40430158E-12
  -15.0000000      -3.32068596E-12
  -14.8800001      -2.49919497E-13
  -14.7600002       4.41314086E-12
  -14.6400003       9.63106764E-12
  -14.5200005       1.39852973E-11
  -14.3999996       1.60822501E-11
  -14.2799997       1.49789018E-11
  -14.1599998       1.04921965E-11
  -14.0400000       3.29025479E-12
  -13.9200001      -5.26838208E-12
  -13.8000002      -1.34986883E-11
  -13.6800003      -1.98374771E-11
  -13.5600004      -2.32255465E-11
  -13.4399996      -2.32944775E-11
  -13.3199997      -2.03012190E-11
  -13.1999998      -1.48539896E-11
  -13.0799999      -7.56427386E-12
  -12.9600000       1.19801966E-12
  -12.8400002       1.13013557E-11
  -12.7200003       2.25607727E-11
  -12.6000004       3.42592621E-11
  -12.4799995       4.47077965E-11
  -12.3599997       5.11160871E-11
  -12.2399998       4.99804816E-11
  -12.1199999       3.80239069E-11
  -12.0000000       1.34970290E-11
  -11.8800001      -2.25493790E-11
  -11.7600002      -6.55005633E-11
  -11.6400003      -1.07331311E-10
  -11.5200005      -1.37855963E-10
  -11.3999996      -1.46924556E-10
  -11.2799997      -1.27085439E-10
  -11.1599998      -7.60157146E-11
  -11.0400000       2.00599086E-12
  -10.9200001       9.61155738E-11
  -10.8000002       1.90525110E-10
  -10.6800003       2.67531358E-10
  -10.5600004       3.11167814E-10
  -10.4399996       3.10571180E-10
  -10.3199997       2.62168454E-10
  -10.1999998       1.70093759E-10
  -10.0799999       4.47382721E-11
  -9.96000004      -1.00123666E-10
  -9.84000015      -2.50774540E-10
  -9.72000027      -3.96556371E-10
  -9.60000038      -5.31609645E-10
  -9.47999954      -6.54975629E-10
  -9.35999966      -7.69259767E-10
  -9.23999977      -8.78541073E-10
  -9.11999989      -9.86432713E-10
  -9.00000000      -1.09506626E-09
  -8.88000011      -1.20533539E-09
  -8.76000023      -1.31816569E-09
  -8.64000034      -1.43609358E-09
  -8.52000046      -1.56425883E-09
  -8.39999962      -1.71010439E-09
  -8.27999973      -1.88159088E-09
  -8.15999985      -2.08437068E-09
  -8.03999996      -2.31887487E-09
  -7.92000008      -2.57845256E-09
  -7.80000019      -2.84945667E-09
  -7.67999983      -3.11358095E-09
  -7.55999994      -3.35201333E-09
  -7.44000006      -3.55033447E-09
  -7.32000017      -3.70279429E-09
  -7.19999981      -3.81473519E-09
  -7.07999992      -3.90246546E-09
  -6.96000004      -3.99061628E-09
  -6.84000015      -4.10772305E-09
  -6.71999979      -4.28119495E-09
  -6.59999990      -4.53287896E-09
  -6.48000002      -4.87611374E-09
  -6.36000013      -5.31462740E-09
  -6.23999977      -5.84313264E-09
  -6.11999989      -6.44912568E-09
  -6.00000000      -7.11534298E-09
  -5.88000011      -7.82247955E-09
  -5.76000023      -8.55195914E-09
  -5.63999987      -9.28863830E-09
  -5.51999998      -1.00232684E-08
  -5.40000010      -1.07543050E-08
  -5.28000021      -1.14885621E-08
  -5.15999985      -1.22402790E-08
  -5.03999996      -1.30285871E-08
  -4.92000008      -1.38739518E-08
  -4.80000019      -1.47946482E-08
  -4.67999983      -1.58044795E-08
  -4.55999994      -1.69125016E-08
  -4.44000006      -1.81247266E-08
  -4.32000017      -1.94468655E-08
  -4.19999981      -2.08866844E-08
  -4.07999992      -2.24547065E-08
  -3.96000004      -2.41628637E-08
  -3.83999991      -2.60217323E-08
  -3.72000003      -2.80378760E-08
  -3.59999990      -3.02127923E-08
  -3.48000002      -3.25441754E-08
  -3.35999990      -3.50289575E-08
  -3.24000001      -3.76665028E-08
  -3.11999989      -4.04601188E-08
  -3.00000000      -4.34159766E-08
  -2.88000011      -4.65399701E-08
  -2.75999999      -4.98345827E-08
  -2.64000010      -5.32982156E-08
  -2.51999998      -5.69285774E-08
  -2.40000010      -6.07295547E-08
  -2.27999997      -6.47189182E-08
  -2.16000009      -6.89328488E-08
  -2.03999996      -7.34239194E-08
  -1.91999996      -7.82515528E-08
  -1.79999995      -8.34671710E-08
  -1.67999995      -8.90991103E-08
  -1.55999994      -9.51432142E-08
  -1.44000006      -1.01563593E-07
  -1.32000005      -1.08304647E-07
  -1.20000005      -1.15311188E-07
  -1.08000004      -1.22550716E-07
 -0.959999979      -1.30030656E-07
 -0.839999974      -1.37804719E-07
 -0.720000029      -1.45966666E-07
 -0.600000024      -1.54632659E-07
 -0.479999989      -1.63917719E-07
 -0.360000014      -1.73912440E-07
 -0.239999995      -1.84666447E-07
 -0.119999997      -1.96182555E-07
  -1.11022302E-15  -2.08422591E-07
  0.119999997      -2.21323887E-07
  0.239999995      -2.34821570E-07
  0.360000014      -2.48871800E-07
  0.479999989      -2.63470355E-07
  0.600000024      -2.78661673E-07
  0.720000029      -2.94536733E-07
  0.839999974      -3.11219424E-07
  0.959999979      -3.28844635E-07
   1.08000004      -3.47533756E-07
   1.20000005      -3.67373076E-07
   1.32000005      -3.88401133E-07
   1.44000006      -4.10608578E-07
   1.55999994      -4.33950731E-07
   1.67999995      -4.58370693E-07
   1.79999995      -4.83827023E-07
   1.91999996      -5.10319182E-07
   2.03999996      -5.37903304E-07
   2.16000009      -5.66694041E-07
   2.27999997      -5.96850327E-07
   2.40000010      -6.28547923E-07
   2.51999998      -6.61946729E-07
   2.64000010      -6.97161397E-07
   2.75999999      -7.34245702E-07
   2.88000011      -7.73196007E-07
   3.00000000      -8.13974111E-07
   3.11999989      -8.56542215E-07
   3.24000001      -9.00898954E-07
   3.35999990      -9.47102762E-07
   3.48000002      -9.95274945E-07
   3.59999990      -1.04557944E-06
   3.72000003      -1.09818870E-06
   3.83999991      -1.15324610E-06
   3.96000004      -1.21084224E-06
   4.07999992      -1.27101191E-06
   4.19999981      -1.33375352E-06
   4.32000017      -1.39906126E-06
   4.44000006      -1.46695845E-06
   4.55999994      -1.53751694E-06
   4.67999983      -1.61085643E-06
   4.80000019      -1.68712631E-06
   4.92000008      -1.76647882E-06
   5.03999996      -1.84904627E-06
   5.15999985      -1.93493247E-06
   5.28000021      -2.02421757E-06
   5.40000010      -2.11697466E-06
   5.51999998      -2.21328651E-06
   5.63999987      -2.31325384E-06
   5.76000023      -2.41699036E-06
   5.88000011      -2.52461268E-06
   6.00000000      -2.63622746E-06
   6.11999989      -2.75192588E-06
   6.23999977      -2.87179319E-06
   6.36000013      -2.99592352E-06
   6.48000002      -3.12443831E-06
   6.59999990      -3.25749716E-06
   6.71999979      -3.39529697E-06
   6.84000015      -3.53805444E-06
   6.96000004      -3.68598398E-06
   7.07999992      -3.83927863E-06
   7.19999981      -3.99809824E-06
   7.32000017      -4.16257353E-06
   7.44000006      -4.33281548E-06
   7.55999994      -4.50893367E-06
   7.67999983      -4.69104725E-06
   7.80000019      -4.87928719E-06
   7.92000008      -5.07379718E-06
   8.03999996      -5.27472366E-06
   8.15999985      -5.48221533E-06
   8.27999973      -5.69641679E-06
   8.39999962      -5.91747539E-06
   8.52000046      -6.14553664E-06
   8.64000034      -6.38074425E-06
   8.76000023      -6.62323600E-06
   8.88000011      -6.87313968E-06
   9.00000000      -7.13057216E-06
   9.11999989      -7.39564894E-06
   9.23999977      -7.66849644E-06
   9.35999966      -7.94926291E-06
   9.47999954      -8.23812934E-06
   9.60000038      -8.53530037E-06
   9.72000027      -8.84099245E-06
   9.84000015      -9.15541295E-06
   9.96000004      -9.47873741E-06
   10.0799999      -9.81110406E-06
   10.1999998      -1.01526166E-05
   10.3199997      -1.05033669E-05
   10.4399996      -1.08634558E-05
   10.5600004      -1.12330126E-05
   10.6800003      -1.16122046E-05
   10.8000002      -1.20012337E-05
   10.9200001      -1.24003236E-05
   11.0400000      -1.28096981E-05
   11.1599998      -1.32295554E-05
   11.2799997      -1.36600520E-05
   11.3999996      -1.41013024E-05
   11.5200005      -1.45533795E-05
   11.6400003      -1.50163332E-05
   11.7600002      -1.54902154E-05
   11.8800001      -1.59751144E-05
   12.0000000      -1.64711691E-05
   12.1199999      -1.69785817E-05
   12.2399998      -1.74976103E-05
   12.3599997      -1.80285278E-05
   12.4799995      -1.85715944E-05
   12.6000004      -1.91270101E-05
   12.7200003      -1.96949131E-05
   12.8400002      -2.02753672E-05
   12.9600000      -2.08684014E-05
   13.0799999      -2.14740357E-05
   13.1999998      -2.20923066E-05
   13.3199997      -2.27232758E-05
   13.4399996      -2.33670089E-05
   13.5600004      -2.40235586E-05
   13.6800003      -2.46929249E-05
   13.8000002      -2.53750732E-05
   13.9200001      -2.60699344E-05
   14.0400000      -2.67774485E-05
   14.1599998      -2.74975882E-05
   14.2799997      -2.82303972E-05
   14.3999996      -2.89759555E-05
   14.5200005      -2.97343722E-05
   14.6400003      -3.05057383E-05
   14.7600002      -3.12901029E-05
   14.8800001      -3.20874715E-05
   15.0000000      -3.28977949E-05
   15.1199999      -3.37209894E-05
   15.2399998      -3.45569279E-05
   15.3599997      -3.54054391E-05
   15.4799995      -3.62662977E-05
   15.6000004      -3.71392016E-05
   15.7200003      -3.80238198E-05
   15.8400002      -3.89197921E-05
   15.9600000      -3.98267948E-05
   16.0799999      -4.07445768E-05
   16.2000008      -4.16729454E-05
   16.3199997      -4.26117476E-05
   16.4400005      -4.35607908E-05
   16.5599995      -4.45197948E-05
   16.6800003      -4.54883593E-05
   16.7999992      -4.64659533E-05
   16.9200001      -4.74519802E-05
   17.0400009      -4.84458324E-05
   17.1599998      -4.94469568E-05
   17.2800007      -5.04548698E-05
   17.3999996      -5.14691383E-05
   17.5200005      -5.24893512E-05
   17.6399994      -5.35150066E-05
   17.7600002      -5.45455005E-05
   17.8799992      -5.55800725E-05
   18.0000000      -5.66178496E-05
   18.1200008      -5.76578568E-05
   18.2399998      -5.86990391E-05
   18.3600006      -5.97403414E-05
   18.4799995      -6.07806833E-05
   18.6000004      -6.18190170E-05
   18.7199993      -6.28542839E-05
   18.8400002      -6.38854690E-05
   18.9599991      -6.49115536E-05
   19.0799999      -6.59315119E-05
   19.2000008      -6.69443325E-05
   19.3199997      -6.79489240E-05
   19.4400005      -6.89441003E-05
   19.5599995      -6.99285738E-05
   19.6800003      -7.09008673E-05
   19.7999992      -7.18593801E-05
   19.9200001      -7.28023879E-05
   20.0400009      -7.37280861E-05
   20.1599998      -7.46346414E-05
   20.2800007      -7.55202127E-05
   20.3999996      -7.63829521E-05
   20.5200005      -7.72210187E-05
   20.6399994      -7.80325572E-05
   20.7600002      -7.88156976E-05
   20.8799992      -7.95685046E-05
   21.0000000      -8.02890208E-05
   21.1200008      -8.09752237E-05
   21.2399998      -8.16250249E-05
   21.3600006      -8.22362781E-05
   21.4799995      -8.28067423E-05
   21.6000004      -8.33340673E-05
   21.7199993      -8.38157939E-05
   21.8400002      -8.42493610E-05
   21.9599991      -8.46321636E-05
   22.0799999      -8.49615535E-05
   22.2000008      -8.52348749E-05
   22.3199997      -8.54494647E-05
   22.4400005      -8.56026527E-05
   22.5599995      -8.56917322E-05
   22.6800003      -8.57139166E-05
   22.7999992      -8.56663610E-05
   22.9200001      -8.55461112E-05
   23.0400009      -8.53501624E-05
   23.1599998      -8.50754368E-05
   23.2800007      -8.47188276E-05
   23.3999996      -8.42772424E-05
   23.5200005      -8.37476327E-05
   23.6399994      -8.31269717E-05
   23.7600002      -8.24122399E-05
   23.8799992      -8.16004103E-05
   24.0000000      -8.06883982E-05
   24.1200008      -7.96730310E-05
   24.2399998      -7.85510711E-05
   24.3600006      -7.73192005E-05
   24.4799995      -7.59740797E-05
   24.6000004      -7.45123834E-05
   24.7199993      -7.29308522E-05
   24.8400002      -7.12263063E-05
   24.9599991      -6.93956245E-05
   25.0799999      -6.74357434E-05
   25.2000008      -6.53435563E-05
   25.3199997      -6.31159273E-05
   25.4400005      -6.07496549E-05
   25.5599995      -5.82415414E-05
   25.6800003      -5.55884326E-05
   25.7999992      -5.27872944E-05
   25.9200001      -4.98352638E-05
   26.0400009      -4.67296450E-05
   26.1599998      -4.34678659E-05
   26.2800007      -4.00474237E-05
   26.3999996      -3.64658590E-05
   26.5200005      -3.27207090E-05
   26.6399994      -2.88095762E-05
   26.7600002      -2.47301414E-05
   26.8799992      -2.04802163E-05
   27.0000000      -1.60577547E-05
   27.1200008      -1.14608238E-05
   27.2399998      -6.68756502E-06
   27.3600006      -1.73616218E-06
   27.4799995       3.39515850E-06
   27.6000004       8.70806343E-06
   27.7199993       1.42040235E-05
   27.8400002       1.98842408E-05
   27.9599991       2.57495922E-05
   28.0799999       3.18006278E-05
   28.2000008       3.80376405E-05
   28.3199997       4.44607504E-05
   28.4400005       5.10699901E-05
   28.5599995       5.78653453E-05
   28.6800003       6.48466812E-05
   28.7999992       7.20136886E-05
   28.9200001       7.93658255E-05
   29.0400009       8.69022624E-05
   29.1599998       9.46218424E-05
   29.2800007       1.02523118E-04
   29.3999996       1.10604422E-04
   29.5200005       1.18863936E-04
   29.6399994       1.27299674E-04
   29.7600002       1.35909489E-04
   29.8799992       1.44691003E-04
   30.0000000       1.53641537E-04
   30.1200008       1.62758050E-04
   30.2399998       1.72037151E-04
   30.3600006       1.81475130E-04
   30.4799995       1.91068102E-04
   30.6000004       2.00811890E-04
   30.7199993       2.10702172E-04
   30.8400002       2.20734350E-04
   30.9599991       2.30903475E-04
   31.0799999       2.41204267E-04
   31.2000008       2.51631049E-04
   31.3199997       2.62177782E-04
   31.4400005       2.72838341E-04
   31.5599995       2.83606263E-04
   31.6800003       2.94475059E-04
   31.7999992       3.05437949E-04
   31.9200001       3.16487974E-04
   32.0400009       3.27617861E-04
   32.1599998       3.38819955E-04
   32.2799988       3.50086368E-04
   32.4000015       3.61408922E-04
   32.5200005       3.72779381E-04
   32.6399994       3.84189276E-04
   32.7599983       3.95630079E-04
   32.8800011       4.07093059E-04
   33.0000000       4.18569136E-04
   33.1199989       4.30048996E-04
   33.2400017       4.41523007E-04
   33.3600006       4.52981214E-04
   33.4799995       4.64413606E-04
   33.5999985       4.75809968E-04
   33.7200012       4.87160025E-04
   33.8400002       4.98453621E-04
   33.9599991       5.09680191E-04
   34.0800018       5.20829344E-04
   34.2000008       5.31890371E-04
   34.3199997       5.42852329E-04
   34.4399986       5.53704507E-04
   34.5600014       5.64436312E-04
   34.6800003       5.75037091E-04
   34.7999992       5.85496309E-04
   34.9199982       5.95803140E-04
   35.0400009       6.05946989E-04
   35.1599998       6.15916855E-04
   35.2799988       6.25701738E-04
   35.4000015       6.35290693E-04
   35.5200005       6.44672953E-04
   35.6399994       6.53837982E-04
   35.7599983       6.62775361E-04
   35.8800011       6.71474962E-04
   36.0000000       6.79926598E-04
   36.1199989       6.88120257E-04
   36.2400017       6.96046045E-04
   36.3600006       7.03694182E-04
   36.4799995       7.11055181E-04
   36.5999985       7.18119845E-04
   36.7200012       7.24879210E-04
   36.8400002       7.31324661E-04
   36.9599991       7.37447641E-04
   37.0800018       7.43240060E-04
   37.2000008       7.48694118E-04
   37.3199997       7.53802422E-04
   37.4399986       7.58557871E-04
   37.5600014       7.62953889E-04
   37.6800003       7.66984012E-04
   37.7999992       7.70642248E-04
   37.9199982       7.73922889E-04
   38.0400009       7.76820641E-04
   38.1599998       7.79330672E-04
   38.2799988       7.81448500E-04
   38.4000015       7.83170224E-04
   38.5200005       7.84492237E-04
   38.6399994       7.85411452E-04
   38.7599983       7.85924960E-04
   38.8800011       7.86030607E-04
   39.0000000       7.85726472E-04
   39.1199989       7.85011449E-04
   39.2400017       7.83884956E-04
   39.3600006       7.82347342E-04
   39.4799995       7.80399190E-04
   39.5999985       7.78041722E-04
   39.7200012       7.75276101E-04
   39.8400002       7.72104191E-04
   39.9599991       7.68527796E-04
   40.0800018       7.64549652E-04
   40.2000008       7.60172901E-04
   40.3199997       7.55401503E-04
   40.4399986       7.50239938E-04
   40.5600014       7.44693447E-04
   40.6800003       7.38767383E-04
   40.7999992       7.32467743E-04
   40.9199982       7.25800637E-04
   41.0400009       7.18772702E-04
   41.1599998       7.11390981E-04
   41.2799988       7.03663158E-04
   41.4000015       6.95597497E-04
   41.5200005       6.87202788E-04
   41.6399994       6.78488112E-04
   41.7599983       6.69462897E-04
   41.8800011       6.60136866E-04
   42.0000000       6.50519971E-04
   42.1199989       6.40622806E-04
   42.2400017       6.30456081E-04
   42.3600006       6.20030856E-04
   42.4799995       6.09358889E-04
   42.5999985       5.98451763E-04
   42.7200012       5.87321585E-04
   42.8400002       5.75980463E-04
   42.9599991       5.64440794E-04
   43.0800018       5.52715268E-04
   43.2000008       5.40816574E-04
   43.3199997       5.28758101E-04
   43.4399986       5.16553060E-04
   43.5600014       5.04215073E-04
   43.6800003       4.91757761E-04
   43.7999992       4.79194598E-04
   43.9199982       4.66539175E-04
   44.0400009       4.53804911E-04
   44.1599998       4.41005337E-04
   44.2799988       4.28154017E-04
   44.4000015       4.15264454E-04
   44.5200005       4.02350212E-04
   44.6399994       3.89424909E-04
   44.7599983       3.76502052E-04
   44.8800011       3.63595173E-04
   45.0000000       3.50717455E-04
   45.1199989       3.37881967E-04
   45.2400017       3.25101428E-04
   45.3600006       3.12388467E-04
   45.4799995       2.99755455E-04
   45.5999985       2.87214556E-04
   45.7200012       2.74777733E-04
   45.8400002       2.62456771E-04
   45.9599991       2.50263081E-04
   46.0800018       2.38207853E-04
   46.2000008       2.26301927E-04
   46.3199997       2.14555766E-04
   46.4399986       2.02979470E-04
   46.5600014       1.91582760E-04
   46.6800003       1.80374933E-04
   46.7999992       1.69364968E-04
   46.9199982       1.58561394E-04
   47.0400009       1.47972401E-04
   47.1599998       1.37605748E-04
   47.2799988       1.27468855E-04
   47.4000015       1.17568743E-04
   47.5200005       1.07912041E-04
   47.6399994       9.85049555E-05
   47.7599983       8.93532415E-05
   47.8800011       8.04621595E-05
   48.0000000       7.18364390E-05
   48.1199989       6.34802273E-05
   48.2400017       5.53971113E-05
   48.3600006       4.75901579E-05
   48.4799995       4.00619683E-05
   48.5999985       3.28147944E-05
   48.7200012       2.58505588E-05
   48.8400002       1.91708878E-05
   48.9599991       1.27770581E-05
   49.0800018       6.66993401E-06
   49.2000008       8.49897617E-07
   49.3199997      -4.68317285E-06
   49.4399986      -9.92990499E-06
   49.5600014      -1.48913768E-05
   49.6800003      -1.95690845E-05
   49.7999992      -2.39649125E-05
   49.9199982      -2.80811437E-05
   50.0400009      -3.19204919E-05
   50.1599998      -3.54861186E-05
   50.2799988      -3.87816071E-05
   50.4000015      -4.18108903E-05
   50.5200005      -4.45781334E-05
   50.6399994      -4.70876730E-05
   50.7599983      -4.93440130E-05
   50.8800011      -5.13518426E-05
   51.0000000      -5.31161568E-05
   51.1199989      -5.46423544E-05
   51.2400017      -5.59362488E-05
   51.3600006      -5.70039920E-05
   51.4799995      -5.78519430E-05
   51.5999985      -5.84865229E-05
   51.7200012      -5.89141709E-05
   51.8400002      -5.91413518E-05
   51.9599991      -5.91747012E-05
   52.0800018      -5.90211130E-05
   52.2000008      -5.86878159E-05
   52.3199997      -5.81822787E-05
   52.4399986      -5.75121048E-05
   52.5600014      -5.66848357E-05
   52.6800003      -5.57079074E-05
   52.7999992      -5.45886505E-05
   52.9199982      -5.33343991E-05
   53.0400009      -5.19526402E-05
   53.1599998      -5.04510463E-05
   53.2799988      -4.88374208E-05
   53.4000015      -4.71195308E-05
   53.5200005      -4.53049215E-05
   53.6399994      -4.34008143E-05
   53.7599983      -4.14141432E-05
   53.8800011      -3.93517403E-05
   54.0000000      -3.72205322E-05
   54.1199989      -3.50276714E-05
   54.2400017      -3.27805137E-05
   54.3600006      -3.04864334E-05
   54.4799995      -2.81525899E-05
   54.5999985      -2.57857355E-05
   54.7200012      -2.33921783E-05
   54.8400002      -2.09778882E-05
   54.9599991      -1.85486733E-05
   55.0800018      -1.61103344E-05
   55.2000008      -1.36687095E-05
   55.3199997      -1.12295847E-05
   55.4399986      -8.79853906E-06
   55.5600014      -6.38081838E-06
   55.6800003      -3.98131579E-06
   55.7999992      -1.60465299E-06
   55.9199982       7.44677038E-07
   56.0400009       3.06220727E-06
   56.1599998       5.34349647E-06
   56.2799988       7.58423766E-06
   56.4000015       9.78042135E-06
   56.5200005       1.19284459E-05
   56.6399994       1.40251459E-05
   56.7599983       1.60676900E-05
   56.8800011       1.80534444E-05
   57.0000000       1.99798505E-05
   57.1199989       2.18444147E-05
   57.2400017       2.36447540E-05
   57.3600006       2.53787202E-05
   57.4799995       2.70444416E-05
   57.5999985       2.86403301E-05
   57.7200012       3.01649852E-05
   57.8400002       3.16171136E-05
   57.9599991       3.29954819E-05
   58.0800018       3.42989661E-05
   58.2000008       3.55266893E-05
   58.3199997       3.66780841E-05
   58.4399986       3.77529432E-05
   58.5600014       3.87513392E-05
   58.6800003       3.96734686E-05
   58.7999992       4.05195424E-05
   58.9199982       4.12897425E-05
   59.0400009       4.19843018E-05
   59.1599998       4.26036349E-05
   59.2799988       4.31484696E-05
   59.4000015       4.36198825E-05
   59.5200005       4.40191943E-05
   59.6399994       4.43478093E-05
   59.7599983       4.46070517E-05
   59.8800011       4.47981147E-05
   60.0000000       4.49221116E-05
   60.1199989       4.49802355E-05
   60.2400017       4.49738654E-05
   60.3600006       4.49046529E-05
   60.4799995       4.47744023E-05
   60.5999985       4.45850055E-05
   60.7200012       4.43383069E-05
   60.8400002       4.40360855E-05
   60.9599991       4.36801529E-05
   61.0800018       4.32724446E-05
   61.2000008       4.28151252E-05
   61.3199997       4.23105594E-05
   61.4399986       4.17611918E-05
   61.5600014       4.11693873E-05
   61.6800003       4.05372957E-05
   61.7999992       3.98668781E-05
   61.9199982       3.91600188E-05
   62.0400009       3.84186533E-05
   62.1599998       3.76448952E-05
   62.2799988       3.68410110E-05
   62.4000015       3.60092927E-05
   62.5200005       3.51519084E-05
   62.6399994       3.42708008E-05
   62.7599983       3.33677162E-05
   62.8800011       3.24443572E-05
   63.0000000       3.15025754E-05
   63.1199989       3.05444701E-05
   63.2400017       2.95723694E-05
   63.3600006       2.85886526E-05
   63.4799995       2.75955190E-05
   63.5999985       2.65948365E-05
   63.7200012       2.55881259E-05
   63.8400002       2.45767078E-05
   63.9599991       2.35619173E-05
   64.0800018       2.25452895E-05
   64.1999969       2.15285818E-05
   64.3199997       2.05136494E-05
   64.4400024       1.95022312E-05
   64.5599976       1.84957698E-05
   64.6800003       1.74953457E-05
   64.8000031       1.65017864E-05
   64.9199982       1.55158759E-05
   65.0400009       1.45385648E-05
   65.1600037       1.35710588E-05
   65.2799988       1.26147606E-05
   65.4000015       1.16710989E-05
   65.5199966       1.07413252E-05
   65.6399994       9.82638994E-06
   65.7600021       8.92694425E-06
   65.8799973       8.04346746E-06
   66.0000000       7.17642160E-06
   66.1200027       6.32636511E-06
   66.2399979       5.49397191E-06
   66.3600006       4.67994732E-06
   66.4800034       3.88490571E-06
   66.5999985       3.10928363E-06
   66.7200012       2.35332277E-06
   66.8399963       1.61713638E-06
   66.9599991       9.00814200E-07
   67.0800018       2.04505767E-07
   67.1999969      -4.71552056E-07
   67.3199997      -1.12707335E-06
   67.4400024      -1.76179219E-06
   67.5599976      -2.37552354E-06
   67.6800003      -2.96818666E-06
   67.8000031      -3.53979271E-06
   67.9199982      -4.09041195E-06
   68.0400009      -4.62014941E-06
   68.1600037      -5.12914994E-06
   68.2799988      -5.61760544E-06
   68.4000015      -6.08576465E-06
   68.5199966      -6.53391999E-06
   68.6399994      -6.96237385E-06
   68.7600021      -7.37140590E-06
   68.8799973      -7.76127308E-06
   69.0000000      -8.13224779E-06
   69.1200027      -8.48467334E-06
   69.2399979      -8.81902088E-06
   69.3600006      -9.13587519E-06
   69.4800034      -9.43586747E-06
   69.5999985      -9.71955888E-06
   69.7200012      -9.98733321E-06
   69.8399963      -1.02393733E-05
   69.9599991      -1.04757328E-05
   70.0800018      -1.06964799E-05
   70.1999969      -1.09018538E-05
   70.3199997      -1.10923474E-05
   70.4400024      -1.12686803E-05
   70.5599976      -1.14316599E-05
   70.6800003      -1.15820148E-05
   70.8000031      -1.17202844E-05
   70.9199982      -1.18468124E-05
   71.0400009      -1.19618653E-05
   71.1600037      -1.20657905E-05
   71.2799988      -1.21591384E-05
   71.4000015      -1.22426572E-05
   71.5199966      -1.23171731E-05
   71.6399994      -1.23834070E-05
   71.7600021      -1.24418302E-05
   71.8799973      -1.24926419E-05
   72.0000000      -1.25358820E-05
   72.1200027      -1.25716269E-05
   72.2399979      -1.26001678E-05
   72.3600006      -1.26220621E-05
   72.4800034      -1.26380537E-05
   72.5999985      -1.26488912E-05
   72.7200012      -1.26551440E-05