  -30.0000000       0.00000000    
  -29.8799992       0.00000000    
  -29.7600002       0.00000000    
  -29.6399994       0.00000000    
  -29.5200005       0.00000000    
  -29.3999996       0.00000000    
  -29.2800007       0.00000000    
  -29.1599998       0.00000000    
  -29.0400009       0.00000000    
  -28.9200001       0.00000000    
  -28.7999992       0.00000000    
  -28.6800003       2.80259693E-45
  -28.5599995      -2.79559044E-42
  -28.4400005       2.56831384E-40
  -28.3199997       4.81618435E-39
  -28.2000008       3.86435769E-38
  -28.0799999       1.68183057E-37
  -27.9599991       2.86453365E-37
  -27.8400002      -1.33272748E-36
  -27.7199993      -1.23599816E-35
  -27.6000004      -5.06287483E-35
  -27.4799995      -1.21889569E-34
  -27.3600006      -9.26910529E-35
  -27.2399998       6.49506041E-34
  -27.1200008       3.64372576E-33
  -27.0000000       1.09373365E-32
  -26.8799992       2.11409544E-32
  -26.7600002       1.81894424E-32
  -26.6399994      -4.67011357E-32
  -26.5200005      -2.61968273E-31
  -26.3999996      -6.99947923E-31
  -26.2800007      -1.21764701E-30
  -26.1599998      -1.07569733E-30
  -26.0400009       1.44070299E-30
  -25.9200001       8.75131508E-30
  -25.7999992       2.18943177E-29
  -25.6800003       3.55576561E-29
  -25.5599995       3.10455303E-29
  -25.4400005      -2.73719333E-29
  -25.3199997      -1.80811226E-28
  -25.2000008      -4.33593901E-28
  -25.0799999      -6.74977682E-28
  -24.9599991      -5.92894067E-28
  -24.8400002       3.33637246E-28
  -24.7199993       2.61911277E-27
  -24.6000004       6.19726662E-27
  -24.4799995       9.51912060E-27
  -24.3600006       8.74357943E-27
  -24.2399998      -2.02045555E-27
  -24.1200008      -2.80944430E-26
  -24.0000000      -6.83039652E-26
  -23.8799992      -1.06633521E-25
  -23.7600002      -1.05775721E-25
  -23.6399994      -1.08917902E-26
  -23.5200005       2.26343989E-25
  -23.3999996       5.98128094E-25
  -23.2800007       9.75153662E-25
  -23.1599998       1.06018488E-24
  -23.0400009       4.20711699E-25
  -22.9200001      -1.33321635E-24
  -22.7999992      -4.19959451E-24
  -22.6800003      -7.34059606E-24
  -22.5599995      -8.77594110E-24
  -22.4400005      -5.58613667E-24
  -22.3199997       4.99380074E-24
  -22.2000008       2.34716601E-23
  -22.0799999       4.54697722E-23
  -21.9599991       5.98851766E-23
  -21.8400002       4.98357765E-23
  -21.7199993      -1.68098134E-24
  -21.6000004      -1.00927855E-22
  -21.4799995      -2.29875582E-22
  -21.3600006      -3.36330910E-22
  -21.2399998      -3.37007892E-22
  -21.1200008      -1.42089298E-22
  -21.0000000       2.96802466E-22
  -20.8799992       9.26085443E-22
  -20.7600002       1.54347167E-21
  -20.6399994       1.80192653E-21
  -20.5200005       1.29737412E-21
  -20.3999996      -2.52376041E-22
  -20.2800007      -2.77605307E-21
  -20.1599998      -5.65589550E-21
  -20.0400009      -7.69786314E-21
  -19.9200001      -7.37507287E-21
  -19.7999992      -3.37405861E-21
  -19.6800003       4.66281913E-21
  -19.5599995       1.54532024E-20
  -19.4400005       2.57923817E-20
  -19.3199997       3.09796458E-20
  -19.2000008       2.60694129E-20
  -19.0799999       7.75817705E-21
  -18.9599991      -2.35951929E-20
  -18.8400002      -6.25078999E-20
  -18.7199993      -9.81359518E-20
  -18.6000004      -1.15686663E-19
  -18.4799995      -9.95564018E-20
  -18.3600006      -3.79415113E-20
  -18.2399998       7.15841844E-20
  -18.1200008       2.16329276E-19
  -18.0000000       3.63956393E-19
  -17.8799992       4.61506708E-19
  -17.7600002       4.41378095E-19
  -17.6399994       2.37873208E-19
  -17.5200005      -1.84072812E-19
  -17.3999996      -7.91686034E-19
  -17.2800007      -1.45060658E-18
  -17.1599998      -1.91488341E-18
  -17.0400009      -1.86414333E-18
  -16.9200001      -1.00323267E-18
  -16.7999992       7.83306384E-19
  -16.6800003       3.26425363E-18
  -16.5599995       5.75889967E-18
  -16.4400005       7.18960077E-18
  -16.3199997       6.35545778E-18
  -16.2000008       2.41806503E-18
  -16.0799999      -4.52158926E-18
  -15.9600000      -1.29857885E-17
  -15.8400002      -2.01028315E-17
  -15.7200003      -2.22244538E-17
  -15.6000004      -1.61887617E-17
  -15.4799995      -9.35936665E-19
  -15.3599997       2.11136114E-17
  -15.2399998       4.36516775E-17
  -15.1199999       5.76316717E-17
  -15.0000000       5.40782395E-17
  -14.8800001       2.79395373E-17
  -14.7600002      -1.83424538E-17
  -14.6400003      -7.32227624E-17
  -14.5200005      -1.17794953E-16
  -14.3999996      -1.31249065E-16
  -14.2799997      -9.88810315E-17
  -14.1599998      -1.99884820E-17
  -14.0400000       8.77839933E-17
  -13.9200001       1.90554832E-16
  -13.8000002       2.47689745E-16
  -13.6800003       2.26614745E-16
  -13.5600004       1.18031566E-16
  -13.4399996      -5.48682102E-17
  -13.3199997      -2.38621251E-16
  -13.1999998      -3.64940254E-16
  -13.0799999      -3.75837783E-16
  -12.9600000      -2.49770561E-16
  -12.8400002      -1.76539864E-17
  -12.7200003       2.40523317E-16
  -12.6000004       4.21273345E-16
  -12.4799995       4.38882551E-16
  -12.3599997       2.67337998E-16
  -12.2399998      -3.59411333E-17
  -12.1199999      -3.39587896E-16
  -12.0000000      -4.84456683E-16
  -11.8800001      -3.54032905E-16
  -11.7600002       5.74952597E-17
  -11.6400003       6.11625868E-16
  -11.5200005       1.05090467E-15
  -11.3999996       1.08724747E-15
  -11.2799997       5.29838273E-16
  -11.1599998      -5.94473451E-16
  -11.0400000      -1.98402115E-15
  -10.9200001      -3.11048201E-15
  -10.8000002      -3.37919242E-15
  -10.6800003      -2.36205365E-15
  -10.5600004      -2.33151262E-17
  -10.4399996       3.15691318E-15
  -10.3199997       6.23559737E-15
  -10.1999998       8.05437870E-15
  -10.0799999       7.62553777E-15
  -9.96000004       4.53419955E-15
  -9.84000015      -7.93969827E-16
  -9.72000027      -7.08400124E-15
  -9.60000038      -1.25067633E-14
  -9.47999954      -1.52144736E-14
  -9.35999966      -1.39545984E-14
  -9.23999977      -8.55203851E-15
  -9.11999989      -7.61477127E-17
  -9.00000000       9.39207920E-15
  -8.88000011       1.73389203E-14
  -8.76000023       2.15617776E-14
  -8.64000034       2.08308136E-14
  -8.52000046       1.52452022E-14
  -8.39999962       6.16866482E-15
  -8.27999973      -4.21977161E-15
  -8.15999985      -1.35882355E-14
  -8.03999996      -2.00898986E-14
  -7.92000008      -2.27667430E-14
  -7.80000019      -2.16177580E-14
  -7.67999983      -1.73693593E-14
  -7.55999994      -1.10953108E-14
  -7.44000006      -3.86677655E-15
  -7.32000017       3.43930041E-15
  -7.19999981       1.01525716E-14
  -7.07999992       1.57259680E-14
  -6.96000004       1.96858538E-14
  -6.84000015       2.17053616E-14
  -6.71999979       2.17849285E-14
  -6.59999990       2.04096231E-14
  -6.48000002       1.85001753E-14
  -6.36000013       1.70314151E-14
  -6.23999977       1.63552609E-14
  -6.11999989       1.54751192E-14
  -6.00000000       1.16748211E-14
  -5.88000011       9.09541861E-16
  -5.76000023      -2.08332514E-14
  -5.63999987      -5.53706962E-14
  -5.51999998      -9.99676348E-14
  -5.40000010      -1.45730040E-13
  -5.28000021      -1.77753835E-13
  -5.15999985      -1.77711876E-13
  -5.03999996      -1.28868324E-13
  -4.92000008      -2.25973432E-14
  -4.80000019       1.35375421E-13
  -4.67999983       3.21267969E-13
  -4.55999994       4.94157070E-13
  -4.44000006       6.02649495E-13
  -4.32000017       5.96853296E-13
  -4.19999981       4.43335852E-13
  -4.07999992       1.39201029E-13
  -3.96000004      -2.79240796E-13
  -3.83999991      -7.37067742E-13
  -3.72000003      -1.13241610E-12
  -3.59999990      -1.35799651E-12
  -3.48000002      -1.32802276E-12
  -3.35999990      -1.00375611E-12
  -3.24000001      -4.10266900E-13
  -3.11999989       3.61381769E-13
  -3.00000000       1.16874164E-12
  -2.88000011       1.84694274E-12
  -2.75999999       2.24526387E-12
  -2.64000010       2.26198357E-12
  -2.51999998       1.86830651E-12
  -2.40000010       1.11509066E-12
  -2.27999997       1.21008577E-13
  -2.16000009      -9.53882372E-13
  -2.03999996      -1.94119026E-12
  -1.91999996      -2.69458349E-12
  -1.79999995      -3.11007708E-12
  -1.67999995      -3.13302487E-12
  -1.55999994      -2.75373886E-12
  -1.44000006      -1.99761778E-12
  -1.32000005      -9.16930811E-13
  -1.20000005       4.10642711E-13
  -1.08000004       1.87618866E-12
 -0.959999979       3.33120619E-12
 -0.839999974       4.58514693E-12
 -0.720000029       5.41743126E-12
 -0.600000024       5.60854444E-12
 -0.479999989       4.98770166E-12
 -0.360000014       3.48670962E-12
 -0.239999995       1.18415206E-12
 -0.119999997      -1.67654952E-12
  -1.11022302E-15  -4.70635206E-12
  0.119999997      -7.42816919E-12
  0.239999995      -9.36218551E-12
  0.360000014      -1.01189569E-11
  0.479999989      -9.47695481E-12
  0.600000024      -7.42528955E-12
  0.720000029      -4.16279684E-12
  0.839999974      -5.78902770E-14
  0.959999979       4.41530016E-12
   1.08000004       8.74420675E-12
   1.20000005       1.24315619E-11
   1.32000005       1.50287057E-11
   1.44000006       1.61539289E-11
   1.55999994       1.55102771E-11
   1.67999995       1.29181596E-11
   1.79999995       8.36950908E-12
   1.91999996       2.09492580E-12
   2.03999996      -5.38069806E-12
   2.16000009      -1.32273446E-11
   2.27999997      -2.03731563E-11
   2.40000010      -2.56529728E-11
   2.51999998      -2.80252141E-11
   2.64000010      -2.68113622E-11
   2.75999999      -2.18934575E-11
   2.88000011      -1.38050691E-11
   3.00000000      -3.67293869E-12
   3.11999989       6.99409974E-12
   3.24000001       1.66267364E-11
   3.35999990       2.39476494E-11
   3.48000002       2.82587755E-11
   3.59999990       2.95793667E-11
   3.72000003       2.85891241E-11
   3.83999991       2.63851684E-11
   3.96000004       2.41153642E-11
   4.07999992       2.25873643E-11
   4.19999981       2.19606174E-11
   4.32000017       2.16044630E-11
   4.44000006       2.01571589E-11
   4.55999994       1.57628320E-11
   4.67999983       6.41424804E-12
   4.80000019      -9.69623774E-12
   4.92000008      -3.39098957E-11
   5.03999996      -6.69786518E-11
   5.15999985      -1.09097203E-10
   5.28000021      -1.60053956E-10
   5.40000010      -2.19433957E-10
   5.51999998      -2.86801249E-10
   5.63999987      -3.61807972E-10
   5.76000023      -4.44212916E-10
   5.88000011      -5.33829925E-10
   6.00000000      -6.30451302E-10
   6.11999989      -7.33795025E-10
   6.23999977      -8.43509929E-10
   6.36000013      -9.59241353E-10
   6.48000002      -1.08073339E-09
   6.59999990      -1.20792654E-09
   6.71999979      -1.34101175E-09
   6.84000015      -1.48042545E-09
   6.96000004      -1.62679326E-09
   7.07999992      -1.78085979E-09
   7.19999981      -1.94344740E-09
   7.32000017      -2.11547269E-09
   7.44000006      -2.29802621E-09
   7.55999994      -2.49248155E-09
   7.67999983      -2.70058487E-09
   7.80000019      -2.92446978E-09
   7.92000008      -3.16657256E-09
   8.03999996      -3.42945694E-09
   8.15999985      -3.71560738E-09
   8.27999973      -4.02726119E-09
   8.39999962      -4.36635128E-09
   8.52000046      -4.73458917E-09
   8.64000034      -5.13364817E-09
   8.76000023      -5.56537305E-09
   8.88000011      -6.03189321E-09
   9.00000000      -6.53555388E-09
   9.11999989      -7.07864656E-09
   9.23999977      -7.66299113E-09
   9.35999966      -8.28954061E-09
   9.47999954      -8.95818708E-09
   9.60000038      -9.66794911E-09
   9.72000027      -1.04175877E-08
   9.84000015      -1.12065957E-08
   9.96000004      -1.20363124E-08
   10.0799999      -1.29108573E-08
   10.1999998      -1.38375569E-08
   10.3199997      -1.48266563E-08
   10.4399996      -1.58902846E-08
   10.5600004      -1.70408860E-08
   10.6800003      -1.82894837E-08
   10.8000002      -1.96442436E-08
   10.9200001      -2.11097344E-08
   11.0400000      -2.26871055E-08
   11.1599998      -2.43751490E-08
   11.2799997      -2.61719642E-08
   11.3999996      -2.80767871E-08
   11.5200005      -3.00914849E-08
   11.6400003      -3.22213829E-08
   11.7600002      -3.44752742E-08
   11.8800001      -3.68647193E-08
   12.0000000      -3.94029520E-08
   12.1199999      -4.21038244E-08
   12.2399998      -4.49810678E-08
   12.3599997      -4.80481184E-08
   12.4799995      -5.13183736E-08
   12.6000004      -5.48057066E-08
   12.7200003      -5.85248792E-08
   12.8400002      -6.24915728E-08
   12.9600000      -6.67218742E-08
   13.0799999      -7.12315114E-08
   13.1999998      -7.60347802E-08
   13.3199997      -8.11438809E-08
   13.4399996      -8.65688818E-08
   13.5600004      -9.23183308E-08
   13.6800003      -9.84006334E-08
   13.8000002      -1.04825787E-07
   13.9200001      -1.11606937E-07
   14.0400000      -1.18761477E-07
   14.1599998      -1.26311321E-07
   14.2799997      -1.34282359E-07
   14.3999996      -1.42703257E-07
   14.5200005      -1.51604041E-07
   14.6400003      -1.61014796E-07
   14.7600002      -1.70964910E-07
   14.8800001      -1.81482747E-07
   15.0000000      -1.92595948E-07
   15.1199999      -2.04331826E-07
   15.2399998      -2.16717879E-07
   15.3599997      -2.29781975E-07
   15.4799995      -2.43552392E-07
   15.6000004      -2.58057810E-07
   15.7200003      -2.73327231E-07
   15.8400002      -2.89390528E-07
   15.9600000      -3.06278878E-07
   16.0799999      -3.24026047E-07
   16.2000008      -3.42669182E-07
   16.3199997      -3.62249494E-07
   16.4400005      -3.82812544E-07
   16.5599995      -4.04407416E-07
   16.6800003      -4.27085894E-07
   16.7999992      -4.50900814E-07
   16.9200001      -4.75904869E-07
   17.0400009      -5.02149476E-07
   17.1599998      -5.29684371E-07
   17.2800007      -5.58557986E-07
   17.3999996      -5.88817500E-07
   17.5200005      -6.20509979E-07
   17.6399994      -6.53682548E-07
   17.7600002      -6.88383636E-07
   17.8799992      -7.24663039E-07
   18.0000000      -7.62572768E-07
   18.1200008      -8.02168131E-07
   18.2399998      -8.43508644E-07
   18.3600006      -8.86658995E-07
   18.4799995      -9.31689783E-07
   18.6000004      -9.78677122E-07
   18.7199993      -1.02770161E-06
   18.8400002      -1.07884648E-06
   18.9599991      -1.13219460E-06
   19.0799999      -1.18782657E-06
   19.2000008      -1.24581845E-06
   19.3199997      -1.30624119E-06
   19.4400005      -1.36916128E-06
   19.5599995      -1.43464251E-06
   19.6800003      -1.50274866E-06
   19.7999992      -1.57354600E-06
   19.9200001      -1.64710423E-06
   20.0400009      -1.72349769E-06
   20.1599998      -1.80280404E-06
   20.2800007      -1.88510273E-06
   20.3999996      -1.97047439E-06
   20.5200005      -2.05899846E-06
   20.6399994      -2.15075443E-06
   20.7600002      -2.24582300E-06
   20.8799992      -2.34428580E-06
   21.0000000      -2.44622925E-06
   21.1200008      -2.55174427E-06
   21.2399998      -2.66092616E-06
   21.3600006      -2.77387176E-06
   21.4799995      -2.89067816E-06
   21.6000004      -3.01143837E-06
   21.7199993      -3.13623991E-06
   21.8400002      -3.26516215E-06
   21.9599991      -3.39827739E-06
   22.0799999      -3.53565088E-06
   22.2000008      -3.67734401E-06
   22.3199997      -3.82341614E-06
   22.4400005      -3.97392751E-06
   22.5599995      -4.12893905E-06
   22.6800003      -4.28851581E-06
   22.7999992      -4.45272326E-06
   22.9200001      -4.62163007E-06
   23.0400009      -4.79530445E-06
   23.1599998      -4.97381461E-06
   23.2800007      -5.15722604E-06
   23.3999996      -5.34560013E-06
   23.5200005      -5.53899326E-06
   23.6399994      -5.73745547E-06
   23.7600002      -5.94102903E-06
   23.8799992      -6.14975170E-06
   24.0000000      -6.36365803E-06
   24.1200008      -6.58278032E-06
   24.2399998      -6.80714993E-06
   24.3600006      -7.03679871E-06
   24.4799995      -7.27175802E-06
   24.6000004      -7.51205471E-06
   24.7199993      -7.75770695E-06
   24.8400002      -8.00872022E-06
   24.9599991      -8.26508403E-06
   25.0799999      -8.52677476E-06
   25.2000008      -8.79374784E-06
   25.3199997      -9.06595687E-06
   25.4400005      -9.34334639E-06
   25.5599995      -9.62586546E-06
   25.6800003      -9.91346951E-06
   25.7999992      -1.02061240E-05
   25.9200001      -1.05037943E-05
   26.0400009      -1.08064478E-05
   26.1599998      -1.11140416E-05
   26.2800007      -1.14265140E-05
   26.3999996      -1.17437821E-05
   26.5200005      -1.20657396E-05
   26.6399994      -1.23922564E-05
   26.7600002      -1.27231860E-05
   26.8799992      -1.30583730E-05
   27.0000000      -1.33976600E-05
   27.1200008      -1.37408897E-05
   27.2399998      -1.40879138E-05
   27.3600006      -1.44385867E-05
   27.4799995      -1.47927713E-05
   27.6000004      -1.51503291E-05
   27.7199993      -1.55111156E-05
   27.8400002      -1.58749772E-05
   27.9599991      -1.62417382E-05
   28.0799999      -1.66112022E-05
   28.2000008      -1.69831455E-05
   28.3199997      -1.73573226E-05
   28.4400005      -1.77334496E-05
   28.5599995      -1.81112373E-05
   28.6800003      -1.84903711E-05
   28.7999992      -1.88705380E-05
   28.9200001      -1.92514235E-05
   29.0400009      -1.96327255E-05
   29.1599998      -2.00141531E-05
   29.2800007      -2.03954096E-05
   29.3999996      -2.07762096E-05
   29.5200005      -2.11562456E-05
   29.6399994      -2.15352047E-05
   29.7600002      -2.19127451E-05
   29.8799992      -2.22885101E-05
   30.0000000      -2.26621305E-05
   30.1200008      -2.30332262E-05
   30.2399998      -2.34014169E-05
   30.3600006      -2.37663280E-05
   30.4799995      -2.41275902E-05
   30.6000004      -2.44848270E-05
   30.7199993      -2.48376618E-05
   30.8400002      -2.51856982E-05
   30.9599991      -2.55285213E-05
   31.0799999      -2.58656983E-05
   31.2000008      -2.61967725E-05
   31.3199997      -2.65212821E-05
   31.4400005      -2.68387557E-05
   31.5599995      -2.71487188E-05
   31.6800003      -2.74506929E-05
   31.7999992      -2.77442086E-05
   31.9200001      -2.80287895E-05
   32.0400009      -2.83039608E-05
   32.1599998      -2.85692422E-05
   32.2799988      -2.88241499E-05
   32.4000015      -2.90682019E-05
   32.5200005      -2.93009125E-05
   32.6399994      -2.95218069E-05
   32.7599983      -2.97304086E-05
   32.8800011      -2.99262447E-05
   33.0000000      -3.01088439E-05
   33.1199989      -3.02777280E-05
   33.2400017      -3.04324112E-05
   33.3600006      -3.05724025E-05
   33.4799995      -3.06972033E-05
   33.5999985      -3.08063027E-05
   33.7200012      -3.08992021E-05
   33.8400002      -3.09754032E-05
   33.9599991      -3.10344076E-05
   34.0800018      -3.10757350E-05
   34.2000008      -3.10989053E-05
   34.3199997      -3.11034528E-05
   34.4399986      -3.10889045E-05
   34.5600014      -3.10547912E-05
   34.6800003      -3.10006508E-05
   34.7999992      -3.09259995E-05
   34.9199982      -3.08303643E-05
   35.0400009      -3.07132723E-05
   35.1599998      -3.05742506E-05
   35.2799988      -3.04128280E-05
   35.4000015      -3.02285480E-05
   35.5200005      -3.00209522E-05
   35.6399994      -2.97895986E-05
   35.7599983      -2.95340615E-05
   35.8800011      -2.92539316E-05
   36.0000000      -2.89488162E-05
   36.1199989      -2.86183385E-05
   36.2400017      -2.82621349E-05
   36.3600006      -2.78798489E-05
   36.4799995      -2.74711238E-05
   36.5999985      -2.70355886E-05
   36.7200012      -2.65728759E-05
   36.8400002      -2.60826000E-05
   36.9599991      -2.55643827E-05
   37.0800018      -2.50178455E-05
   37.2000008      -2.44426374E-05
   37.3199997      -2.38384255E-05
   37.4399986      -2.32049078E-05
   37.5600014      -2.25418171E-05
   37.6800003      -2.18488985E-05
   37.7999992      -2.11259194E-05
   37.9199982      -2.03726468E-05
   38.0400009      -1.95888388E-05
   38.1599998      -1.87742462E-05
   38.2799988      -1.79286126E-05
   38.4000015      -1.70516814E-05
   38.5200005      -1.61432108E-05
   38.6399994      -1.52029725E-05
   38.7599983      -1.42307763E-05
   38.8800011      -1.32264549E-05
   39.0000000      -1.21898729E-05
   39.1199989      -1.11209129E-05
   39.2400017      -1.00194711E-05
   39.3600006      -8.88544582E-06
   39.4799995      -7.71873329E-06
   39.5999985      -6.51922892E-06
   39.7200012      -5.28682858E-06
   39.8400002      -4.02142996E-06
   39.9599991      -2.72293937E-06
   40.0800018      -1.39127462E-06
   40.2000008      -2.63656297E-08
   40.3199997       1.37184634E-06
   40.4399986       2.80340919E-06
   40.5600014       4.26836232E-06
   40.6800003       5.76673256E-06
   40.7999992       7.29853400E-06
   40.9199982       8.86375983E-06
   41.0400009       1.04623850E-05
   41.1599998       1.20943550E-05
   41.2799988       1.37595925E-05
   41.4000015       1.54579993E-05
   41.5200005       1.71894608E-05
   41.6399994       1.89538569E-05
   41.7599983       2.07510620E-05
   41.8800011       2.25809508E-05
   42.0000000       2.44434050E-05
   42.1199989       2.63383099E-05
   42.2400017       2.82655456E-05
   42.3600006       3.02249773E-05
   42.4799995       3.22164633E-05
   42.5999985       3.42398343E-05
   42.7200012       3.62949067E-05
   42.8400002       3.83814622E-05
   42.9599991       4.04992716E-05
   43.0800018       4.26480801E-05
   43.2000008       4.48276187E-05
   43.3199997       4.70376144E-05
   43.4399986       4.92777726E-05
   43.5600014       5.15478096E-05
   43.6800003       5.38474451E-05
   43.7999992       5.61763918E-05
   43.9199982       5.85343769E-05
   44.0400009       6.09211020E-05
   44.1599998       6.33362724E-05
   44.2799988       6.57795608E-05
   44.4000015       6.82505997E-05
   44.5200005       7.07489817E-05
   44.6399994       7.32742847E-05
   44.7599983       7.58260721E-05
   44.8800011       7.84038857E-05
   45.0000000       8.10072888E-05
   45.1199989       8.36358595E-05
   45.2400017       8.62891829E-05
   45.3600006       8.89668518E-05
   45.4799995       9.16684730E-05
   45.5999985       9.43936320E-05
   45.7200012       9.71418485E-05
   45.8400002       9.99126496E-05
   45.9599991       1.02705497E-04
   46.0800018       1.05519830E-04
   46.2000008       1.08355038E-04
   46.3199997       1.11210531E-04
   46.4399986       1.14085706E-04
   46.5600014       1.16979951E-04
   46.6800003       1.19892684E-04
   46.7999992       1.22823316E-04
   46.9199982       1.25771228E-04
   47.0400009       1.28735890E-04
   47.1599998       1.31716617E-04
   47.2799988       1.34712798E-04
   47.4000015       1.37723735E-04
   47.5200005       1.40748714E-04
   47.6399994       1.43787038E-04
   47.7599983       1.46837905E-04
   47.8800011       1.49900588E-04
   48.0000000       1.52974346E-04
   48.1199989       1.56058391E-04
   48.2400017       1.59151983E-04
   48.3600006       1.62254335E-04
   48.4799995       1.65364603E-04
   48.5999985       1.68481973E-04
   48.7200012       1.71605585E-04
   48.8400002       1.74734523E-04
   48.9599991       1.77867900E-04
   49.0800018       1.81004740E-04
   49.2000008       1.84144126E-04
   49.3199997       1.87285099E-04
   49.4399986       1.90426697E-04
   49.5600014       1.93567947E-04
   49.6800003       1.96707872E-04
   49.7999992       1.99845425E-04
   49.9199982       2.02979616E-04
   50.0400009       2.06109355E-04
   50.1599998       2.09233578E-04
   50.2799988       2.12351137E-04
   50.4000015       2.15460881E-04
   50.5200005       2.18561589E-04
   50.6399994       2.21652066E-04
   50.7599983       2.24731077E-04
   50.8800011       2.27797384E-04
   51.0000000       2.30849721E-04
   51.1199989       2.33886822E-04
   51.2400017       2.36907406E-04
   51.3600006       2.39910180E-04
   51.4799995       2.42893802E-04
   51.5999985       2.45856849E-04
   51.7200012       2.48797936E-04
   51.8400002       2.51715595E-04
   51.9599991       2.54608371E-04
   52.0800018       2.57474749E-04
   52.2000008       2.60313187E-04
   52.3199997       2.63122201E-04
   52.4399986       2.65900191E-04
   52.5600014       2.68645497E-04
   52.6800003       2.71356519E-04
   52.7999992       2.74031569E-04
   52.9199982       2.76668987E-04
   53.0400009       2.79267028E-04
   53.1599998       2.81823945E-04
   53.2799988       2.84338021E-04
   53.4000015       2.86807452E-04
   53.5200005       2.89230433E-04
   53.6399994       2.91605160E-04
   53.7599983       2.93929770E-04
   53.8800011       2.96202430E-04
   54.0000000       2.98421219E-04
   54.1199989       3.00584157E-04
   54.2400017       3.02689354E-04
   54.3600006       3.04734800E-04
   54.4799995       3.06718459E-04
   54.5999985       3.08638264E-04
   54.7200012       3.10492178E-04
   54.8400002       3.12278222E-04
   54.9599991       3.13994271E-04
   55.0800018       3.15638201E-04
   55.2000008       3.17207887E-04
   55.3199997       3.18701204E-04
   55.4399986       3.20116029E-04
   55.5600014       3.21450148E-04
   55.6800003       3.22701468E-04
   55.7999992       3.23867687E-04
   55.9199982       3.24946712E-04
   56.0400009       3.25936329E-04
   56.1599998       3.26834328E-04
   56.2799988       3.27638525E-04
   56.4000015       3.28346738E-04
   56.5200005       3.28956696E-04
   56.6399994       3.29466275E-04
   56.7599983       3.29873175E-04
   56.8800011       3.30175302E-04
   57.0000000       3.30370356E-04
   57.1199989       3.30456183E-04
   57.2400017       3.30430601E-04
   57.3600006       3.30291427E-04
   57.4799995       3.30036477E-04
   57.5999985       3.29663657E-04
   57.7200012       3.29170900E-04
   57.8400002       3.28556082E-04
   57.9599991       3.27817193E-04
   58.0800018       3.26952228E-04
   58.2000008       3.25959147E-04
   58.3199997       3.24836059E-04
   58.4399986       3.23581015E-04
   58.5600014       3.22192180E-04
   58.6800003       3.20667692E-04
   58.7999992       3.19005834E-04
   58.9199982       3.17204831E-04
   59.0400009       3.15262936E-04
   59.1599998       3.13178491E-04
   59.2799988       3.10949923E-04
   59.4000015       3.08575720E-04
   59.5200005       3.06054455E-04
   59.6399994       3.03384848E-04
   59.7599983       3.00565618E-04
   59.8800011       2.97595630E-04
   60.0000000       2.94473750E-04
   60.1199989       2.91198987E-04
   60.2400017       2.87770265E-04
   60.3600006       2.84186739E-04
   60.4799995       2.80447566E-04
   60.5999985       2.76552018E-04
   60.7200012       2.72499485E-04
   60.8400002       2.68289557E-04
   60.9599991       2.63921829E-04
   61.0800018       2.59396067E-04
   61.2000008       2.54712097E-04
   61.3199997       2.49869860E-04
   61.4399986       2.44869472E-04
   61.5600014       2.39711168E-04
   61.6800003       2.34395309E-04
   61.7999992       2.28922363E-04
   61.9199982       2.23292940E-04
   62.0400009       2.17507753E-04
   62.1599998       2.11567618E-04
   62.2799988       2.05473538E-04
   62.4000015       1.99226633E-04
   62.5200005       1.92828185E-04
   62.6399994       1.86279620E-04
   62.7599983       1.79582523E-04
   62.8800011       1.72738670E-04
   63.0000000       1.65750011E-04
   63.1199989       1.58618626E-04
   63.2400017       1.51346787E-04
   63.3600006       1.43936908E-04
   63.4799995       1.36391536E-04
   63.5999985       1.28713349E-04
   63.7200012       1.20905155E-04
   63.8400002       1.12969952E-04
   63.9599991       1.04910861E-04
   64.0800018       9.67311789E-05
   64.1999969       8.84343972E-05
   64.3199997       8.00241978E-05
   64.4400024       7.15044152E-05
   64.5599976       6.28790804E-05
   64.6800003       5.41523586E-05
   64.8000031       4.53286048E-05
   64.9199982       3.64122898E-05
   65.0400009       2.74080630E-05
   65.1600037       1.83207121E-05
   65.2799988       9.15519013E-06
   65.4000015      -8.33975875E-08
   65.5199966      -9.38980429E-06
   65.6399994      -1.87586375E-05
   65.7600021      -2.81843568E-05
   65.8799973      -3.76612734E-05
   66.0000000      -4.71835556E-05
   66.1200027      -5.67452225E-05
   66.2399979      -6.63401443E-05
   66.3600006      -7.59620816E-05
   66.4800034      -8.56046754E-05
   66.5999985      -9.52614791E-05
   66.7200012      -1.04925952E-04
   66.8399963      -1.14591465E-04
   66.9599991      -1.24251324E-04
   67.0800018      -1.33898691E-04
   67.1999969      -1.43526631E-04
   67.3199997      -1.53128072E-04
   67.4400024      -1.62695898E-04
   67.5599976      -1.72222863E-04
   67.6800003      -1.81701704E-04
   67.8000031      -1.91125146E-04
   67.9199982      -2.00485840E-04
   68.0400009      -2.09776481E-04
   68.1600037      -2.18989662E-04
   68.2799988      -2.28118006E-04
   68.4000015      -2.37154061E-04
   68.5199966      -2.46090378E-04
   68.6399994      -2.54919491E-04
   68.7600021      -2.63633992E-04
   68.8799973      -2.72226520E-04
   69.0000000      -2.80689768E-04
   69.1200027      -2.89016491E-04
   69.2399979      -2.97199382E-04
   69.3600006      -3.05231282E-04
   69.4800034      -3.13105091E-04
   69.5999985      -3.20813706E-04
   69.7200012      -3.28350172E-04
   69.8399963      -3.35707620E-04
   69.9599991      -3.42879299E-04
   70.0800018      -3.49858601E-04
   70.1999969      -3.56639066E-04
   70.3199997      -3.63214465E-04
   70.4400024      -3.69578600E-04
   70.5599976      -3.75725358E-04
   70.6800003      -3.81648919E-04
   70.8000031      -3.87343491E-04
   70.9199982      -3.92803573E-04
   71.0400009      -3.98023869E-04
   71.1600037      -4.02999256E-04
   71.2799988      -4.07724961E-04
   71.4000015      -4.12196358E-04
   71.5199966      -4.16409253E-04
   71.6399994      -4.20359545E-04
   71.7600021      -4.24043392E-04
   71.8799973      -4.27457213E-04
   72.0000000      -4.30597720E-04
   72.1200027      -4.33461828E-04
   72.2399979      -4.36046714E-04
   72.3600006      -4.38349933E-04
   72.4800034      -4.40369331E-04
   72.5999985      -4.42102988E-04
   72.7200012      -4.43549332E-04