  -30.0000000       0.00000000    
  -29.8799992       0.00000000    
  -29.7600002       0.00000000    
  -29.6399994       0.00000000    
  -29.5200005       0.00000000    
  -29.3999996      -2.66246708E-44
  -29.2800007      -7.14522087E-42
  -29.1599998      -7.82779335E-41
  -29.0400009      -3.41611342E-40
  -28.9200001      -6.03121662E-40
  -28.7999992       8.78339483E-40
  -28.6800003       8.01027464E-39
  -28.5599995       2.10926191E-38
  -28.4400005       1.68364805E-38
  -28.3199997      -8.14570313E-38
  -28.2000008      -4.02737573E-37
  -28.0799999      -1.00816568E-36
  -27.9599991      -1.56411670E-36
  -27.8400002      -8.54556376E-37
  -27.7199993       3.50794340E-36
  -27.6000004       1.44379520E-35
  -27.4799995       3.29722492E-35
  -27.3600006       5.39335634E-35
  -27.2399998       6.11461167E-35
  -27.1200008       2.59081021E-35
  -27.0000000      -8.61289934E-35
  -26.8799992      -2.95770404E-34
  -26.7600002      -5.80211843E-34
  -26.6399994      -8.42414445E-34
  -26.5200005      -8.99216812E-34
  -26.3999996      -5.10699903E-34
  -26.2800007       5.35057065E-34
  -26.1599998       2.28979247E-33
  -26.0400009       4.50431399E-33
  -25.9200001       6.54504014E-33
  -25.7999992       7.43969566E-33
  -25.6800003       6.09519057E-33
  -25.5599995       1.66575025E-33
  -25.4400005      -6.03334561E-33
  -25.3199997      -1.62332405E-32
  -25.2000008      -2.72018238E-32
  -25.0799999      -3.65730999E-32
  -24.9599991      -4.18775946E-32
  -24.8400002      -4.09333964E-32
  -24.7199993      -3.16931056E-32
  -24.6000004      -1.13770625E-32
  -24.4799995       2.46737410E-32
  -24.3600006       8.31762111E-32
  -24.2399998       1.70297981E-31
  -24.1200008       2.84801404E-31
  -24.0000000       4.07332114E-31
  -23.8799992       4.89580373E-31
  -23.7600002       4.50776881E-31
  -23.6399994       1.90923052E-31
  -23.5200005      -3.72338941E-31
  -23.3999996      -1.24492347E-30
  -23.2800007      -2.29106990E-30
  -23.1599998      -3.19160333E-30
  -23.0400009      -3.46304360E-30
  -22.9200001      -2.56739157E-30
  -22.7999992      -1.15688310E-31
  -22.6800003       3.87413033E-30
  -22.5599995       8.75024829E-30
  -22.4400005       1.31453325E-29
  -22.3199997       1.51475233E-29
  -22.2000008       1.27757466E-29
  -22.0799999       4.71073361E-30
  -21.9599991      -8.88869858E-30
  -21.8400002      -2.57594274E-29
  -21.7199993      -4.14155857E-29
  -21.6000004      -4.97980634E-29
  -21.4799995      -4.47787890E-29
  -21.3600006      -2.23353692E-29
  -21.2399998       1.71018547E-29
  -21.1200008       6.68943660E-29
  -21.0000000       1.13906864E-28
  -20.8799992       1.40415941E-28
  -20.7600002       1.28487501E-28
  -20.6399994       6.63408958E-29
  -20.5200005      -4.47028743E-29
  -20.3999996      -1.84932813E-28
  -20.2800007      -3.15294087E-28
  -20.1599998      -3.83110510E-28
  -20.0400009      -3.35483009E-28
  -19.9200001      -1.39006750E-28
  -19.7999992       1.98551641E-28
  -19.6800003       6.11823069E-28
  -19.5599995       9.75400509E-28
  -19.4400005       1.12314697E-27
  -19.3199997       8.92541129E-28
  -19.2000008       1.89411178E-28
  -19.0799999      -9.41735639E-28
  -18.9599991      -2.26612197E-27
  -18.8400002      -3.35511479E-27
  -18.7199993      -3.65603441E-27
  -18.6000004      -2.64510339E-27
  -18.4799995      -4.60936575E-29
  -18.3600006       3.93678878E-27
  -18.2399998       8.45438949E-27
  -18.1200008       1.20139410E-26
  -18.0000000       1.27287206E-26
  -17.8799992       8.84462835E-27
  -17.7600002      -5.18915535E-28
  -17.6399994      -1.45887914E-26
  -17.5200005      -3.03951250E-26
  -17.3999996      -4.27889988E-26
  -17.2800007      -4.52933055E-26
  -17.1599998      -3.18806826E-26
  -17.0400009       5.28292213E-28
  -16.9200001       4.94246502E-26
  -16.7999992       1.04843793E-25
  -16.6800003       1.49349834E-25
  -16.5599995       1.60792273E-25
  -16.4400005       1.18181902E-25
  -16.3199997       1.00499169E-26
  -16.2000008      -1.56571214E-25
  -16.0799999      -3.49544662E-25
  -15.9600000      -5.10994216E-25
  -15.8400002      -5.65792242E-25
  -15.7200003      -4.40529561E-25
  -15.6000004      -9.11686980E-26
  -15.4799995       4.66439303E-25
  -15.3599997       1.13284725E-24
  -15.2399998       1.71999268E-24
  -15.1199999       1.97573527E-24
  -15.0000000       1.64342515E-24
  -14.8800001       5.52048066E-25
  -14.7600002      -1.28057270E-24
  -14.6400003      -3.56207302E-24
  -14.5200005      -5.69628610E-24
  -14.3999996      -6.84792402E-24
  -14.2799997      -6.12333714E-24
  -14.1599998      -2.85906542E-24
  -14.0400000       3.03200286E-24
  -13.9200001       1.07510950E-23
  -13.8000002       1.84667163E-23
  -13.6800003       2.34594296E-23
  -13.5600004       2.26464753E-23
  -13.4399996       1.34839711E-23
  -13.3199997      -4.88759008E-24
  -13.1999998      -3.05363165E-23
  -13.0799999      -5.80713644E-23
  -12.9600000      -7.88527501E-23
  -12.8400002      -8.24202757E-23
  -12.7200003      -5.92254427E-23
  -12.6000004      -4.34360422E-24
  -12.4799995       7.86410135E-23
  -12.3599997       1.74820008E-22
  -12.2399998       2.57672466E-22
  -12.1199999       2.92581618E-22
  -12.0000000       2.44741534E-22
  -11.8800001       9.08310350E-23
  -11.7600002      -1.67720613E-22
  -11.6400003      -4.93586961E-22
  -11.5200005      -8.09224826E-22
  -11.3999996      -1.00397512E-21
  -11.2799997      -9.55486504E-22
  -11.1599998      -5.64946637E-22
  -11.0400000       1.99192768E-22
  -10.9200001       1.25952849E-21
  -10.8000002       2.40470472E-21
  -10.6800003       3.29692543E-21
  -10.5600004       3.52434840E-21
  -10.4399996       2.70168235E-21
  -10.3199997       6.08133099E-22
  -10.1999998      -2.66516988E-21
  -10.0799999      -6.60173493E-21
  -9.96000004      -1.02322621E-20
  -9.84000015      -1.22408053E-20
  -9.72000027      -1.12305326E-20
  -9.60000038      -6.13553586E-21
  -9.47999954       3.28754190E-21
  -9.35999966       1.60091841E-20
  -9.23999977       2.94797121E-20
  -9.11999989       3.97539610E-20
  -9.00000000       4.21138620E-20
  -8.88000011       3.22133114E-20
  -8.76000023       7.61600780E-21
  -8.64000034      -3.05832098E-20
  -8.52000046      -7.65250117E-20
  -8.39999962      -1.19296828E-19
  -8.27999973      -1.44094333E-19
  -8.15999985      -1.35108515E-19
  -8.03999996      -7.99980717E-20
  -7.92000008       2.47447671E-20
  -7.80000019       1.68803562E-19
  -7.67999983       3.25126390E-19
  -7.55999994       4.50897031E-19
  -7.44000006       4.93781538E-19
  -7.32000017       4.03828489E-19
  -7.19999981       1.49837176E-19
  -7.07999992      -2.62867736E-19
  -6.96000004      -7.78067074E-19
  -6.84000015      -1.28353347E-18
  -6.71999979      -1.62073778E-18
  -6.59999990      -1.61284989E-18
  -6.48000002      -1.11047529E-18
  -6.36000013      -4.89742331E-20
  -6.23999977       1.49491834E-18
  -6.11999989       3.26454728E-18
  -6.00000000       4.82229795E-18
  -5.88000011       5.60264235E-18
  -5.76000023       5.02683490E-18
  -5.63999987       2.67168998E-18
  -5.51999998      -1.53450493E-18
  -5.40000010      -7.13561648E-18
  -5.28000021      -1.30519390E-17
  -5.15999985      -1.76288815E-17
  -5.03999996      -1.88788870E-17
  -4.92000008      -1.49298044E-17
  -4.80000019      -4.63795744E-18
  -4.67999983       1.17421985E-17
  -4.55999994       3.20039388E-17
  -4.44000006       5.17634804E-17
  -4.32000017       6.47769108E-17
  -4.19999981       6.39481222E-17
  -4.07999992       4.30441365E-17
  -3.96000004      -1.06138450E-18
  -3.83999991      -6.60253183E-17
  -3.72000003      -1.42177087E-16
  -3.59999990      -2.11923858E-16
  -3.48000002      -2.51159351E-16
  -3.35999990      -2.33186000E-16
  -3.24000001      -1.35189622E-16
  -3.11999989       5.33831762E-17
  -3.00000000       3.22001772E-16
  -2.88000011       6.32010034E-16
  -2.75999999       9.14096463E-16
  -2.64000010       1.07300196E-15
  -2.51999998       1.00146325E-15
  -2.40000010       6.03832636E-16
  -2.27999997      -1.72534444E-16
  -2.16000009      -1.30286796E-15
  -2.03999996      -2.65513701E-15
  -1.91999996      -3.97445816E-15
  -1.79999995      -4.89200829E-15
  -1.67999995      -4.96693683E-15
  -1.55999994      -3.76520418E-15
  -1.44000006      -9.71860193E-16
  -1.32000005       3.47629839E-15
  -1.20000005       9.26111181E-15
  -1.08000004       1.55888553E-14
 -0.959999979       2.11687560E-14
 -0.839999974       2.42997473E-14
 -0.720000029       2.30902537E-14
 -0.600000024       1.58151690E-14
 -0.479999989       1.38473126E-15
 -0.360000014      -2.01353606E-14
 -0.239999995      -4.70482587E-14
 -0.119999997      -7.57178201E-14
  -1.11022302E-15  -1.00561574E-13
  0.119999997      -1.14464021E-13
  0.239999995      -1.09684024E-13
  0.360000014      -7.92524886E-14
  0.479999989      -1.87515527E-14
  0.600000024       7.17524523E-14
  0.720000029       1.85965054E-13
  0.839999974       3.10235046E-13
  0.959999979       4.23494302E-13
   1.08000004       4.98662797E-13
   1.20000005       5.05762099E-13
   1.32000005       4.16725519E-13
   1.44000006       2.11557307E-13
   1.55999994      -1.14885288E-13
   1.67999995      -5.46576781E-13
   1.79999995      -1.04183242E-12
   1.91999996      -1.53209606E-12
   2.03999996      -1.92531559E-12
   2.16000009      -2.11477624E-12
   2.27999997      -1.99352882E-12
   2.40000010      -1.47357007E-12
   2.51999998      -5.07813193E-13
   2.64000010       8.88214469E-13
   2.75999999       2.61887517E-12
   2.88000011       4.49947414E-12
   3.00000000       6.25998125E-12
   3.11999989       7.56452886E-12
   3.24000001       8.04794512E-12
   3.35999990       7.36802893E-12
   3.48000002       5.26922863E-12
   3.59999990       1.65027237E-12
   3.72000003      -3.37437023E-12
   3.83999991      -9.43101933E-12
   3.96000004      -1.58732628E-11
   4.07999992      -2.18085532E-11
   4.19999981      -2.61711521E-11
   4.32000017      -2.78418018E-11
   4.44000006      -2.58069833E-11
   4.55999994      -1.93426559E-11
   4.67999983      -8.19975945E-12
   4.80000019       7.23695539E-12
   4.92000008       2.58477267E-11
   5.03999996       4.57634139E-11
   5.15999985       6.44603468E-11
   5.28000021       7.89751042E-11
   5.40000010       8.62336869E-11
   5.51999998       8.34711050E-11
   5.63999987       6.86980334E-11
   5.76000023       4.11551869E-11
   5.88000011       1.68483586E-12
   6.00000000      -4.70524869E-11
   6.11999989      -1.00580079E-10
   6.23999977      -1.52869301E-10
   6.36000013      -1.96878361E-10
   6.48000002      -2.25338997E-10
   6.59999990      -2.31721073E-10
   6.71999979      -2.11264922E-10
   6.84000015      -1.61939240E-10
   6.96000004      -8.51666446E-11
   7.07999992       1.38353530E-11
   7.19999981       1.26219243E-10
   7.32000017       2.40243603E-10
   7.44000006       3.42567530E-10
   7.55999994       4.19998869E-10
   7.67999983       4.61496785E-10
   7.80000019       4.60147087E-10
   7.92000008       4.14774409E-10
   8.03999996       3.30842964E-10
   8.15999985       2.20341051E-10
   8.27999973       1.00445173E-10
   8.39999962      -9.07884531E-12
   8.52000046      -8.95765753E-11
   8.64000034      -1.27915747E-10
   8.76000023      -1.20992910E-10
   8.88000011      -7.95422617E-11
   9.00000000      -3.03514193E-11
   9.11999989      -1.60094958E-11
   9.23999977      -9.14711709E-11
   9.35999966      -3.17037258E-10
   9.47999954      -7.47812756E-10
   9.60000038      -1.42028145E-09
   9.72000027      -2.33727282E-09
   9.84000015      -3.45321505E-09
   9.96000004      -4.66208716E-09
   10.0799999      -5.79077408E-09
   10.1999998      -6.60054811E-09
   10.3199997      -6.79902090E-09
   10.4399996      -6.06411454E-09
   10.5600004      -4.08042311E-09
   10.6800003      -5.86755866E-10
   10.8000002       4.56813121E-09
   10.9200001       1.13664758E-08
   11.0400000       1.95657144E-08
   11.1599998       2.86538793E-08
   11.2799997       3.78248046E-08
   11.3999996       4.59816576E-08
   11.5200005       5.17760554E-08
   11.6400003       5.36878879E-08
   11.7600002       5.01474986E-08
   11.8800001       3.96976709E-08
   12.0000000       2.11878692E-08
   12.1199999      -6.01189942E-09
   12.2399998      -4.17952606E-08
   12.3599997      -8.51235669E-08
   12.4799995      -1.33874565E-07
   12.6000004      -1.84761149E-07
   12.7200003      -2.33344849E-07
   12.8400002      -2.74164194E-07
   12.9600000      -3.00992724E-07
   13.0799999      -3.07231403E-07
   13.1999998      -2.86430691E-07
   13.3199997      -2.32924833E-07
   13.4399996      -1.42548643E-07
   13.5600004      -1.33953177E-08
   13.6800003       1.53436460E-07
   13.8000002       3.53165262E-07
   13.9200001       5.76782838E-07
   14.0400000       8.10704591E-07
   14.1599998       1.03667332E-06
   14.2799997       1.23196025E-06
   14.3999996       1.36989865E-06
   14.5200005       1.42075783E-06
   14.6400003       1.35295159E-06
   14.7600002       1.13454621E-06
   14.8800001       7.35009905E-07
   15.0000000       1.27127578E-07
   15.1199999      -7.11021016E-07
   15.2399998      -1.79412802E-06
   15.3599997      -3.12788893E-06
   15.4799995      -4.70752138E-06
   15.6000004      -6.51667870E-06
   15.7200003      -8.52685571E-06
   15.8400002      -1.06973675E-05
   15.9600000      -1.29759410E-05
   16.0799999      -1.52999273E-05
   16.2000008      -1.75981349E-05
   16.3199997      -1.97931931E-05
   16.4400005      -2.18043933E-05
   16.5599995      -2.35508433E-05
   16.6800003      -2.49548266E-05
   16.7999992      -2.59451754E-05
   16.9200001      -2.64605260E-05
   17.0400009      -2.64522496E-05
   17.1599998      -2.58869404E-05
   17.2800007      -2.47482985E-05
   17.3999996      -2.30383484E-05
   17.5200005      -2.07778849E-05
   17.6399994      -1.80061415E-05
   17.7600002      -1.47796891E-05
   17.8799992      -1.11706213E-05
   18.0000000      -7.26410462E-06
   18.1200008      -3.15541206E-06
   18.2399998       1.05340882E-06
   18.3600006       5.25709493E-06
   18.4799995       9.35078697E-06
   18.6000004       1.32335572E-05
   18.7199993       1.68117022E-05
   18.8400002       2.00016893E-05
   18.9599991       2.27326236E-05
   19.0799999       2.49482127E-05
   19.2000008       2.66081333E-05
   19.3199997       2.76888168E-05
   19.4400005       2.81836565E-05
   19.5599995       2.81026514E-05
   19.6800003       2.74715512E-05
   19.7999992       2.63305483E-05
   19.9200001       2.47325988E-05
   20.0400009       2.27414384E-05
   20.1599998       2.04293665E-05
   20.2800007       1.78748596E-05
   20.3999996       1.51601180E-05
   20.5200005       1.23685459E-05
   20.6399994       9.58229521E-06
   20.7600002       6.87988040E-06
   20.8799992       4.33394416E-06
   21.0000000       2.00921863E-06
   21.1200008      -3.92616251E-08
   21.2399998      -1.76764718E-06
   21.3600006      -3.14441422E-06
   21.4799995      -4.15111663E-06
   21.6000004      -4.78271386E-06
   21.7199993      -5.04745867E-06
   21.8400002      -4.96632356E-06
   21.9599991      -4.57197893E-06
   22.0799999      -3.90734704E-06
   22.2000008      -3.02376429E-06
   22.3199997      -1.97882719E-06
   22.4400005      -8.33985951E-07
   22.5599995       3.48009905E-07
   22.6800003       1.50571657E-06
   22.7999992       2.58153500E-06
   22.9200001       3.52407596E-06
   23.0400009       4.29024021E-06
   23.1599998       4.84692282E-06
   23.2800007       5.17225271E-06
   23.3999996       5.25631913E-06
   23.5200005       5.10133668E-06
   23.6399994       4.72125566E-06
   23.7600002       4.14082342E-06
   23.8799992       3.39415351E-06
   24.0000000       2.52286873E-06
   24.1200008       1.57391116E-06
   24.2399998       5.97129429E-07
   24.3600006      -3.57238264E-07
   24.4799995      -1.24106327E-06
   24.6000004      -2.01068474E-06
   24.7199993      -2.62901517E-06
   24.8400002      -3.06729362E-06
   24.9599991      -3.30640523E-06
   25.0799999      -3.33771050E-06
   25.2000008      -3.16334399E-06
   25.3199997      -2.79598271E-06
   25.4400005      -2.25809185E-06
   25.5599995      -1.58069588E-06
   25.6800003      -8.01735041E-07
   25.7999992       3.59084780E-08
   25.9200001       8.86618579E-07
   26.0400009       1.70437909E-06
   26.1599998       2.44511875E-06
   26.2800007       3.06895572E-06
   26.3999996       3.54222857E-06
   26.5200005       3.83921451E-06
   26.6399994       3.94344852E-06
   26.7600002       3.84857503E-06
   26.8799992       3.55868383E-06
   27.0000000       3.08811423E-06
   27.1200008       2.46072159E-06
   27.2399998       1.70865303E-06
   27.3600006       8.70676388E-07
   27.4799995      -9.84567006E-09
   27.6000004      -8.87238571E-07
   27.7199993      -1.71593592E-06
   27.8400002      -2.45290926E-06
   27.9599991      -3.05997719E-06
   28.0799999      -3.50586561E-06
   28.2000008      -3.76790763E-06
   28.3199997      -3.83328552E-06
   28.4400005      -3.69973850E-06
   28.5599995      -3.37570236E-06
   28.6800003      -2.87986018E-06
   28.7999992      -2.24013525E-06
   28.9200001      -1.49217192E-06
   29.0400009      -6.77396088E-07
   29.1599998       1.59243683E-07
   29.2800007       9.71722329E-07
   29.3999996       1.71543525E-06
   29.5200005       2.34960612E-06
   29.6399994       2.83946679E-06
   29.7600002       3.15808757E-06
   29.8799992       3.28775832E-06
   30.0000000       3.22083861E-06
   30.1200008       2.96004214E-06
   30.2399998       2.51813981E-06
   30.3600006       1.91711320E-06
   30.4799995       1.18680964E-06
   30.6000004       3.63195710E-07
   30.7199993      -5.13689713E-07
   30.8400002      -1.40195129E-06
   30.9599991      -2.26009161E-06
   31.0799999      -3.04917512E-06
   31.2000008      -3.73477565E-06
   31.3199997      -4.28860631E-06
   31.4400005      -4.68974986E-06
   31.5599995      -4.92543631E-06
   31.6800003      -4.99133421E-06
   31.7999992      -4.89137665E-06
   31.9200001      -4.63713377E-06
   32.0400009      -4.24680729E-06
   32.1599998      -3.74390947E-06
   32.2799988      -3.15573016E-06
   32.4000015      -2.51168308E-06
   32.5200005      -1.84163480E-06
   32.6399994      -1.17431637E-06
   32.7599983      -5.35902871E-07
   32.8800011       5.11632940E-08
   33.0000000       5.69049632E-07
   33.1199989       1.00507452E-06
   33.2400017       1.35189771E-06
   33.3600006       1.60736954E-06
   33.4799995       1.77406650E-06
   33.5999985       1.85856356E-06
   33.7200012       1.87050819E-06
   33.8400002       1.82157157E-06
   33.9599991       1.72435966E-06
   34.0800018       1.59136789E-06
   34.2000008       1.43405509E-06
   34.3199997       1.26210489E-06
   34.4399986       1.08291965E-06
   34.5600014       9.01382748E-07
   34.6800003       7.19889158E-07
   34.7999992       5.38634538E-07
   34.9199982       3.56121177E-07
   35.0400009       1.69825441E-07
   35.1599998      -2.30433006E-08
   35.2799988      -2.24770943E-07
   35.4000015      -4.36433709E-07
   35.5200005      -6.57332748E-07
   35.6399994      -8.84628037E-07
   35.7599983      -1.11321424E-06
   35.8800011      -1.33585525E-06
   36.0000000      -1.54357190E-06
   36.1199989      -1.72625244E-06
   36.2400017      -1.87343005E-06
   36.3600006      -1.97515988E-06
   36.4799995      -2.02291153E-06
   36.5999985      -2.01039279E-06
   36.7200012      -1.93422193E-06
   36.8400002      -1.79438223E-06
   36.9599991      -1.59440901E-06
   37.0800018      -1.34128277E-06
   37.2000008      -1.04503204E-06
   37.3199997      -7.18075796E-07
   37.4399986      -3.74361036E-07
   37.5600014      -2.83694312E-08
   37.6800003       3.05917183E-07
   37.7999992       6.15999511E-07
   37.9199982       8.91704190E-07
   38.0400009       1.12581176E-06
   38.1599998       1.31441448E-06
   38.2799988       1.45697572E-06
   38.4000015       1.55609018E-06
   38.5200005       1.61697324E-06
   38.6399994       1.64673224E-06
   38.7599983       1.65349354E-06
   38.8800011       1.64547066E-06
   39.0000000       1.63006268E-06
   39.1199989       1.61306741E-06
   39.2400017       1.59807985E-06
   39.3600006       1.58612988E-06
   39.4799995       1.57558497E-06
   39.5999985       1.56232147E-06
   39.7200012       1.54014447E-06
   39.8400002       1.50140897E-06
   39.9599991       1.43778709E-06
   40.0800018       1.34110735E-06
   40.2000008       1.20419531E-06
   40.3199997       1.02164699E-06
   40.4399986       7.90470096E-07
   40.5600014       5.10552638E-07
   40.6800003       1.84923991E-07
   40.7999992      -1.80201511E-07
   40.9199982      -5.75594072E-07
   41.0400009      -9.89371870E-07
   41.1599998      -1.40752911E-06
   41.2799988      -1.81458813E-06
   41.4000015      -2.19433764E-06
   41.5200005      -2.53061057E-06
   41.6399994      -2.80806830E-06
   41.7599983      -3.01295017E-06
   41.8800011      -3.13376222E-06
   42.0000000      -3.16187925E-06
   42.1199989      -3.09203733E-06
   42.2400017      -2.92269806E-06
   42.3600006      -2.65627341E-06
   42.4799995      -2.29919169E-06
   42.5999985      -1.86179864E-06
   42.7200012      -1.35808125E-06
   42.8400002      -8.05215677E-07
   42.9599991      -2.22938510E-07
   43.0800018       3.67243189E-07
   43.2000008       9.42979511E-07
   43.3199997       1.48210802E-06
   43.4399986       1.96373662E-06
   43.5600014       2.36932169E-06
   43.6800003       2.68367125E-06
   43.7999992       2.89580498E-06
   43.9199982       2.99960197E-06
   44.0400009       2.99417729E-06
   44.1599998       2.88394608E-06
   44.2799988       2.67835526E-06
   44.4000015       2.39128372E-06
   44.5200005       2.04014850E-06
   44.6399994       1.64477228E-06
   44.7599983       1.22609583E-06
   44.8800011       8.04829938E-07
   45.0000000       4.00153851E-07
   45.1199989       2.85626545E-08
   45.2400017      -2.97044579E-07
   45.3600006      -5.67964946E-07
   45.4799995      -7.79937295E-07
   45.5999985      -9.33019805E-07
   45.7200012      -1.03112325E-06
   45.8400002      -1.08125073E-06
   45.9599991      -1.09252255E-06
   46.0800018      -1.07508436E-06
   46.2000008      -1.03900220E-06
   46.3199997      -9.93250978E-07
   46.4399986      -9.44888882E-07
   46.5600014      -8.98490725E-07
   46.6800003      -8.55889198E-07
   46.7999992      -8.16238924E-07
   46.9199982      -7.76391516E-07
   47.0400009      -7.31533078E-07
   47.1599998      -6.76018601E-07
   47.2799988      -6.04310117E-07
   47.4000015      -5.11920518E-07
   47.5200005      -3.96261356E-07
   47.6399994      -2.57300769E-07
   47.7599983      -9.79543557E-08
   47.8800011       7.58427987E-08
   48.0000000       2.55405183E-07
   48.1199989       4.29896176E-07
   48.2400017       5.87212071E-07
   48.3600006       7.15076510E-07
   48.4799995       8.02243790E-07
   48.5999985       8.39695701E-07
   48.7200012       8.21710103E-07
   48.8400002       7.46685544E-07
   48.9599991       6.17625858E-07
   49.0800018       4.42215594E-07
   49.2000008       2.32455719E-07
   49.3199997       3.87084542E-09
   49.4399986      -2.25659647E-07
   49.5600014      -4.37353009E-07
   49.6800003      -6.13133750E-07
   49.7999992      -7.37258347E-07
   49.9199982      -7.97803295E-07
   50.0400009      -7.87871329E-07
   50.1599998      -7.06394871E-07
   50.2799988      -5.58447141E-07
   50.4000015      -3.55017960E-07
   50.5200005      -1.12257226E-07
   50.6399994       1.49759074E-07
   50.7599983       4.08641966E-07
   50.8800011       6.41545284E-07
   51.0000000       8.27105453E-07
   51.1199989       9.47294780E-07
   51.2400017       9.89025693E-07
   51.3600006       9.45364889E-07
   51.4799995       8.16248189E-07
   51.5999985       6.08631581E-07
   51.7200012       3.36064460E-07
   51.8400002       1.77163457E-08
   51.9599991      -3.23062210E-07
   52.0800018      -6.60526723E-07
   52.2000008      -9.68528752E-07
   52.3199997      -1.22254755E-06
   52.4399986      -1.40160228E-06
   52.5600014      -1.48989238E-06
   52.6800003      -1.47804178E-06
   52.7999992      -1.36385131E-06
   52.9199982      -1.15250646E-06
   53.0400009      -8.56230827E-07
   53.1599998      -4.93415939E-07
   53.2799988      -8.72989645E-08
   53.4000015       3.35706147E-07
   53.5200005       7.47898412E-07
   53.6399994       1.12225632E-06
   53.7599983       1.43433726E-06
   53.8800011       1.66397217E-06
   54.0000000       1.79663550E-06
   54.1199989       1.82440021E-06
   54.2400017       1.74641150E-06
   54.3600006       1.56886017E-06
   54.4799995       1.30446483E-06
   54.5999985       9.71509508E-07
   54.7200012       5.92514766E-07
   54.8400002       1.92637586E-07
   54.9599991      -2.02083797E-07
   55.0800018      -5.66522715E-07
   55.2000008      -8.78176763E-07
   55.3199997      -1.11869213E-06
   55.4399986      -1.27510668E-06
   55.5600014      -1.34073480E-06
   55.6800003      -1.31564184E-06
   55.7999992      -1.20667596E-06
   55.9199982      -1.02705121E-06
   56.0400009      -7.95496874E-07
   56.1599998      -5.35017989E-07
   56.2799988      -2.71329100E-07
   56.4000015      -3.10517123E-08
   56.5200005       1.60219344E-07
   56.6399994       2.79856522E-07
   56.7599983       3.10016617E-07
   56.8800011       2.39201739E-07
   57.0000000       6.34398063E-08
   57.1199989      -2.13020243E-07
   57.2400017      -5.77575292E-07
   57.3600006      -1.00973602E-06
   57.4799995      -1.48219158E-06
   57.5999985      -1.96241945E-06
   57.7200012      -2.41474550E-06
   57.8400002      -2.80272093E-06
   57.9599991      -3.09164693E-06
   58.0800018      -3.25107180E-06
   58.2000008      -3.25707538E-06
   58.3199997      -3.09416805E-06
   58.4399986      -2.75666434E-06
   58.5600014      -2.24942596E-06
   58.6800003      -1.58790988E-06
   58.7999992      -7.97520215E-07
   58.9199982       8.77012880E-08
   59.0400009       1.02695378E-06
   59.1599998       1.97499980E-06
   59.2799988       2.88477941E-06
   59.4000015       3.71013925E-06
   59.5200005       4.40850181E-06
   59.6399994       4.94331289E-06
   59.7599983       5.28610735E-06
   59.8800011       5.41808322E-06
   60.0000000       5.33109369E-06
   60.1199989       5.02801231E-06
   60.2400017       4.52246468E-06
   60.3600006       3.83796305E-06
   60.4799995       3.00650845E-06
   60.5999985       2.06676009E-06
   60.7200012       1.06188872E-06
   60.8400002       3.72475100E-08
   60.9599991      -9.62003469E-07
   61.0800018      -1.89318723E-06
   61.2000008      -2.71818794E-06
   61.3199997      -3.40521274E-06
   61.4399986      -3.93015171E-06
   61.5600014      -4.27747409E-06
   61.6800003      -4.44062971E-06
   61.7999992      -4.42194641E-06
   61.9199982      -4.23205074E-06
   62.0400009      -3.88885519E-06
   62.1599998      -3.41618556E-06
   62.2799988      -2.84213979E-06
   62.4000015      -2.19729100E-06
   62.5200005      -1.51284280E-06
   62.6399994      -8.18863214E-07
   62.7599983      -1.42707165E-07
   62.8800011       4.92271852E-07
   63.0000000       1.06764344E-06
   63.1199989       1.57040643E-06
   63.2400017       1.99306146E-06
   63.3600006       2.33327228E-06
   63.4799995       2.59316107E-06
   63.5999985       2.77832964E-06
   63.7200012       2.89669742E-06
   63.8400002       2.95728410E-06
   63.9599991       2.96904295E-06
   64.0800018       2.93985613E-06
   64.1999969       2.87577268E-06
   64.3199997       2.78054927E-06
   64.4400024       2.65551421E-06
   64.5599976       2.49974710E-06
   64.6800003       2.31053627E-06
   64.8000031       2.08404867E-06
   64.9199982       1.81613780E-06
   65.0400009       1.50320568E-06
   65.1600037       1.14304009E-06
   65.2799988       7.35555432E-07
   65.4000015       2.83383656E-07
   65.5199966      -2.07724511E-07
   65.6399994      -7.28709153E-07
   65.7600021      -1.26723182E-06
   65.8799973      -1.80792529E-06
   66.0000000      -2.33285209E-06
   66.1200027      -2.82216206E-06
   66.2399979      -3.25492579E-06
   66.3600006      -3.61012417E-06
   66.4800034      -3.86776219E-06
   66.5999985      -4.01006446E-06
   66.7200012      -4.02270007E-06
   66.8399963      -3.89596016E-06
   66.9599991      -3.62581795E-06
   67.0800018      -3.21476750E-06
   67.1999969      -2.67235669E-06
   67.3199997      -2.01532885E-06
   67.4400024      -1.26730890E-06
   67.5599976      -4.58001864E-07
   67.6800003       3.78095621E-07
   67.8000031       1.20341770E-06
   67.9199982       1.97939812E-06
   68.0400009       2.66875122E-06
   68.1600037       3.23780660E-06
   68.2799988       3.65872006E-06
   68.4000015       3.91138110E-06
   68.5199966       3.98485963E-06
   68.6399994       3.87825366E-06
   68.7600021       3.60085937E-06
   68.8799973       3.17163085E-06
   69.0000000       2.61795230E-06
   69.1200027       1.97380973E-06
   69.2399979       1.27749934E-06
   69.3600006       5.69046392E-07
   69.4800034      -1.12465045E-07
   69.5999985      -7.31441276E-07
   69.7200012      -1.25800909E-06
   69.8399963      -1.66975735E-06
   69.9599991      -1.95286407E-06
   70.0800018      -2.10253620E-06
   70.1999969      -2.12274949E-06
   70.3199997      -2.02534534E-06
   70.4400024      -1.82857968E-06
   70.5599976      -1.55528528E-06
   70.6800003      -1.23081736E-06
   70.8000031      -8.80975676E-07
   70.9199982      -5.30080854E-07
   71.0400009      -1.99356663E-07
   71.1600037       9.42713214E-08
   71.2799988       3.38899810E-07
   71.4000015       5.27888915E-07
   71.5199966       6.59659349E-07
   71.6399994       7.37126015E-07
   71.7600021       7.66871665E-07
   71.8799973       7.58173144E-07
   72.0000000       7.21985430E-07
   72.1200027       6.69970973E-07
   72.2399979       6.13633631E-07
   72.3600006       5.63588571E-07
   72.4800034       5.28971725E-07
   72.5999985       5.16974751E-07
   72.7200012       5.32482204E-07