  -30.0000000       0.00000000    
  -29.8799992       0.00000000    
  -29.7600002       0.00000000    
  -29.6399994       0.00000000    
  -29.5200005       0.00000000    
  -29.3999996       0.00000000    
  -29.2800007       9.87915417E-43
  -29.1599998       3.12937973E-41
  -29.0400009       2.38820495E-40
  -28.9200001       9.25379671E-40
  -28.7999992       1.94719530E-39
  -28.6800003       8.01025642E-40
  -28.5599995      -9.43953321E-39
  -28.4400005      -3.68418770E-38
  -28.3199997      -7.36485703E-38
  -28.2000008      -6.53985433E-38
  -28.0799999       1.08122194E-37
  -27.9599991       5.82358880E-37
  -27.8400002       1.33223136E-36
  -27.7199993       1.90019211E-36
  -27.6000004       1.22595150E-36
  -27.4799995      -2.07454861E-36
  -27.3600006      -8.69918912E-36
  -27.2399998      -1.70778508E-35
  -27.1200008      -2.21087772E-35
  -27.0000000      -1.56736603E-35
  -26.8799992       9.86111549E-36
  -26.7600002       5.54336274E-35
  -26.6399994       1.08973366E-34
  -26.5200005       1.43445380E-34
  -26.3999996       1.23394787E-34
  -26.2800007       2.07594153E-35
  -26.1599998      -1.64779616E-34
  -26.0400009      -3.90483382E-34
  -25.9200001      -5.70786950E-34
  -25.7999992      -5.98949269E-34
  -25.6800003      -3.87099427E-34
  -25.5599995       8.76426203E-35
  -25.4400005       7.48747106E-34
  -25.3199997       1.41461635E-33
  -25.2000008       1.83222045E-33
  -25.0799999       1.74999352E-33
  -24.9599991       1.01682300E-33
  -24.8400002      -3.20625130E-34
  -24.7199993      -1.96279510E-33
  -24.6000004      -3.38817880E-33
  -24.4799995      -3.99726266E-33
  -24.3600006      -3.35340363E-33
  -24.2399998      -1.44399269E-33
  -24.1200008       1.16514523E-33
  -24.0000000       3.41162881E-33
  -23.8799992       4.11231601E-33
  -23.7600002       2.55342554E-33
  -23.6399994      -9.34137534E-34
  -23.5200005      -4.72459391E-33
  -23.3999996      -6.22741716E-33
  -23.2800007      -2.84804226E-33
  -23.1599998       6.66236696E-33
  -23.0400009       2.09668534E-32
  -22.9200001       3.56047394E-32
  -22.7999992       4.36038991E-32
  -22.6800003       3.73316082E-32
  -22.5599995       1.12172739E-32
  -22.4400005      -3.53988486E-32
  -22.3199997      -9.61923837E-32
  -22.2000008      -1.57333559E-31
  -22.0799999      -1.98954511E-31
  -21.9599991      -1.98635858E-31
  -21.8400002      -1.36611933E-31
  -21.7199993      -2.17123174E-33
  -21.6000004       1.99515010E-31
  -21.4799995       4.41366578E-31
  -21.3600006       6.71179956E-31
  -21.2399998       8.14084287E-31
  -21.1200008       7.83782252E-31
  -21.0000000       5.04465375E-31
  -20.8799992      -5.80383526E-32
  -20.7600002      -8.62488511E-31
  -20.6399994      -1.76785887E-30
  -20.5200005      -2.53338555E-30
  -20.3999996      -2.85572416E-30
  -20.2800007      -2.44659965E-30
  -20.1599998      -1.13916217E-30
  -20.0400009       1.00545890E-30
  -19.9200001       3.63135219E-30
  -19.7999992       6.10008330E-30
  -19.6800003       7.60478942E-30
  -19.5599995       7.37834896E-30
  -19.4400005       4.95158958E-30
  -19.3199997       3.87950516E-31
  -19.2000008      -5.58923377E-30
  -19.0799999      -1.16440611E-29
  -18.9599991      -1.60747803E-29
  -18.8400002      -1.72264714E-29
  -18.7199993      -1.39787712E-29
  -18.6000004      -6.17906937E-30
  -18.4799995       5.11429531E-30
  -18.3600006       1.76810044E-29
  -18.2399998       2.85140488E-29
  -18.1200008       3.44673932E-29
  -18.0000000       3.30373902E-29
  -17.8799992       2.30851834E-29
  -17.7600002       5.30636544E-30
  -17.6399994      -1.76860043E-29
  -17.5200005      -4.16932206E-29
  -17.3999996      -6.15926660E-29
  -17.2800007      -7.21725154E-29
  -17.1599998      -6.89876773E-29
  -17.0400009      -4.91658949E-29
  -16.9200001      -1.21966307E-29
  -16.7999992       3.92246087E-29
  -16.6800003       9.83287144E-29
  -16.5599995       1.53678533E-28
  -16.4400005       1.89473806E-28
  -16.3199997       1.87577584E-28
  -16.2000008       1.31903945E-28
  -16.0799999       1.50833356E-29
  -15.9600000      -1.53899449E-28
  -15.8400002      -3.43780397E-28
  -15.7200003      -5.00427233E-28
  -15.6000004      -5.55000384E-28
  -15.4799995      -4.42404790E-28
  -15.3599997      -1.28017370E-28
  -15.2399998       3.63857205E-28
  -15.1199999       9.30403467E-28
  -15.0000000       1.39186119E-27
  -14.8800001       1.52402332E-27
  -14.7600002       1.12387170E-27
  -14.6400003       9.85757149E-29
  -14.5200005      -1.44565165E-27
  -14.3999996      -3.14933380E-27
  -14.2799997      -4.41748356E-27
  -14.1599998      -4.53662505E-27
  -14.0400000      -2.89338214E-27
  -13.9200001       7.40453475E-28
  -13.8000002       5.93305908E-27
  -13.6800003       1.14368892E-26
  -13.5600004       1.52678805E-26
  -13.4399996       1.51021735E-26
  -13.3199997       8.99346345E-27
  -13.1999998      -3.70418112E-27
  -13.0799999      -2.14550013E-26
  -12.9600000      -4.00516453E-26
  -12.8400002      -5.28886925E-26
  -12.7200003      -5.22661210E-26
  -12.6000004      -3.17337480E-26
  -12.4799995       1.08939226E-26
  -12.3599997       7.06500745E-26
  -12.2399998       1.33787173E-25
  -12.1199999       1.78613529E-25
  -12.0000000       1.79663231E-25
  -11.8800001       1.15250125E-25
  -11.7600002      -2.27639280E-26
  -11.6400003      -2.19517335E-25
  -11.5200005      -4.31614595E-25
  -11.3999996      -5.89362469E-25
  -11.2799997      -6.09599660E-25
  -11.1599998      -4.19416340E-25
  -11.0400000       1.27300064E-26
  -10.9200001       6.46270550E-25
  -10.8000002       1.34935575E-24
  -10.6800003       1.90346378E-24
  -10.5600004       2.04108431E-24
  -10.4399996       1.51823312E-24
  -10.3199997       2.11963006E-25
  -10.1999998      -1.78031332E-24
  -10.0799999      -4.07402600E-24
  -9.96000004      -6.00152755E-24
  -9.84000015      -6.71766337E-24
  -9.72000027      -5.41542914E-24
  -9.60000038      -1.62552777E-24
  -9.47999954       4.46744434E-24
  -9.35999966       1.17950285E-23
  -9.23999977       1.83794336E-23
  -9.11999989       2.16118621E-23
  -9.00000000       1.88723186E-23
  -8.88000011       8.42713284E-24
  -8.76000023      -9.58317694E-24
  -8.64000034      -3.23657702E-23
  -8.52000046      -5.42657858E-23
  -8.39999962      -6.74445845E-23
  -8.27999973      -6.35998973E-23
  -8.15999985      -3.65914204E-23
  -8.03999996       1.45333549E-23
  -7.92000008       8.29737847E-23
  -7.80000019       1.53144988E-22
  -7.67999983       2.02192068E-22
  -7.55999994       2.04623577E-22
  -7.44000006       1.39817442E-22
  -7.32000017       1.06464520E-24
  -7.19999981      -1.96278779E-22
  -7.07999992      -4.10689772E-22
  -6.96000004      -5.77540493E-22
  -6.84000015      -6.21308666E-22
  -6.71999979      -4.76626932E-22
  -6.59999990      -1.14700969E-22
  -6.48000002       4.31688921E-22
  -6.36000013       1.05377670E-21
  -6.23999977       1.57241572E-21
  -6.11999989       1.77023295E-21
  -6.00000000       1.45048362E-21
  -5.88000011       5.13588738E-22
  -5.76000023      -9.67661467E-22
  -5.63999987      -2.70099148E-21
  -5.51999998      -4.18420023E-21
  -5.40000010      -4.79269537E-21
  -5.28000021      -3.94840206E-21
  -5.15999985      -1.34643870E-21
  -5.03999996       2.81492874E-21
  -4.92000008       7.68126864E-21
  -4.80000019       1.17554999E-20
  -4.67999983       1.31498404E-20
  -4.55999994       1.00970391E-20
  -4.44000006       1.65973850E-21
  -4.32000017      -1.15220952E-20
  -4.19999981      -2.66951960E-20
  -4.07999992      -3.89627595E-20
  -3.96000004      -4.20180351E-20
  -3.83999991      -2.97570826E-20
  -3.72000003       1.36500664E-21
  -3.59999990       4.96953892E-20
  -3.48000002       1.06248060E-19
  -3.35999990       1.54073233E-19
  -3.24000001       1.70114268E-19
  -3.11999989       1.30177510E-19
  -3.00000000       1.68986488E-20
  -2.88000011      -1.70474273E-19
  -2.75999999      -4.06855919E-19
  -2.64000010      -6.36031115E-19
  -2.51999998      -7.73058909E-19
  -2.40000010      -7.17505821E-19
  -2.27999997      -3.78699725E-19
  -2.16000009       2.89062815E-19
  -2.03999996       1.24760188E-18
  -1.91999996       2.34272087E-18
  -1.79999995       3.29236992E-18
  -1.67999995       3.70893518E-18
  -1.55999994       3.16573725E-18
  -1.44000006       1.30924669E-18
  -1.32000005      -1.99453408E-18
  -1.20000005      -6.50678716E-18
  -1.08000004      -1.14979544E-17
 -0.959999979      -1.57169941E-17
 -0.839999974      -1.74985840E-17
 -0.720000029      -1.50429395E-17
 -0.600000024      -6.86964028E-18
 -0.479999989       7.60177494E-18
 -0.360000014       2.74488322E-17
 -0.239999995       4.97786605E-17
 -0.119999997       6.95874889E-17
  -1.11022302E-15   8.01346108E-17
  0.119999997       7.39613949E-17
  0.239999995       4.45700333E-17
  0.360000014      -1.13932268E-17
  0.479999989      -9.18056726E-17
  0.600000024      -1.87132752E-16
  0.720000029      -2.79563780E-16
  0.839999974      -3.43899294E-16
  0.959999979      -3.50705919E-16
   1.08000004      -2.71892256E-16
   1.20000005      -8.83152086E-17
   1.32000005       2.01636749E-16
   1.44000006       5.74197335E-16
   1.55999994       9.75323181E-16
   1.67999995       1.32110066E-15
   1.79999995       1.50545050E-15
   1.91999996       1.41614581E-15
   2.03999996       9.58568446E-16
   2.16000009       8.46042448E-17
   2.27999997      -1.17808455E-15
   2.40000010      -2.70298124E-15
   2.51999998      -4.25534911E-15
   2.64000010      -5.50363215E-15
   2.75999999      -6.05646133E-15
   2.88000011      -5.52603617E-15
   3.00000000      -3.61308595E-15
   3.11999989      -2.02237348E-16
   3.24000001       4.54927716E-15
   3.35999990       1.01507446E-14
   3.48000002       1.57668119E-14
   3.59999990       2.02741842E-14
   3.72000003       2.23954935E-14
   3.83999991       2.09062521E-14
   3.96000004       1.48943307E-14
   4.07999992       4.03450644E-15
   4.19999981      -1.11730270E-14
   4.32000017      -2.92582019E-14
   4.44000006      -4.77851435E-14
   4.55999994      -6.35436121E-14
   4.67999983      -7.29388135E-14
   4.80000019      -7.25532034E-14
   4.92000008      -5.98129808E-14
   5.03999996      -3.36545773E-14
   5.15999985       4.93811526E-15
   5.28000021       5.26583002E-14
   5.40000010       1.03971871E-13
   5.51999998       1.51641191E-13
   5.63999987       1.87659241E-13
   5.76000023       2.04487062E-13
   5.88000011       1.96403915E-13
   6.00000000       1.60717021E-13
   6.11999989       9.85600219E-14
   6.23999977       1.50471032E-14
   6.36000013      -8.13507858E-14
   6.48000002      -1.80188194E-13
   6.59999990      -2.70983079E-13
   6.71999979      -3.45330074E-13
   6.84000015      -3.98677185E-13
   6.96000004      -4.31217995E-13
   7.07999992      -4.47436765E-13
   7.19999981      -4.54071188E-13
   7.32000017      -4.56607408E-13
   7.44000006      -4.54849591E-13
   7.55999994      -4.38535926E-13
   7.67999983      -3.84294972E-13
   7.80000019      -2.55360891E-13
   7.92000008      -5.28597475E-15
   8.03999996       4.13633618E-13
   8.15999985       1.03736594E-12
   8.27999973       1.87384917E-12
   8.39999962       2.88585930E-12
   8.52000046       3.97655823E-12
   8.64000034       4.98189554E-12
   8.76000023       5.67401898E-12
   8.88000011       5.77898493E-12
   9.00000000       5.01027735E-12
   9.11999989       3.11703875E-12
   9.23999977      -5.72109769E-14
   9.35999966      -4.51280940E-12
   9.47999954      -1.00392706E-11
   9.60000038      -1.61793634E-11
   9.72000027      -2.22235026E-11
   9.84000015      -2.72437212E-11
   9.96000004      -3.01722015E-11
   10.0799999      -2.99230224E-11
   10.1999998      -2.55484696E-11
   10.3199997      -1.64137055E-11
   10.4399996      -2.36723184E-12
   10.5600004       1.61192483E-11
   10.6800003       3.78684167E-11
   10.8000002       6.09952158E-11
   10.9200001       8.29996558E-11
   11.0400000       1.00957478E-10
   11.1599998       1.11797328E-10
   11.2799997       1.12639377E-10
   11.3999996       1.01158006E-10
   11.5200005       7.59243848E-11
   11.6400003       3.66834792E-11
   11.7600002      -1.54732286E-11
   11.8800001      -7.80649226E-11
   12.0000000      -1.47315340E-10
   12.1199999      -2.18369239E-10
   12.2399998      -2.85598184E-10
   12.3599997      -3.42948586E-10
   12.4799995      -3.84280940E-10
   12.6000004      -4.03656275E-10
   12.7200003      -3.95545624E-10
   12.8400002      -3.54966528E-10
   12.9600000      -2.77584955E-10
   13.0799999      -1.59851021E-10
   13.1999998       7.41733606E-13
   13.3199997       2.05181344E-10
   13.4399996       4.52177684E-10
   13.5600004       7.37097994E-10
   13.6800003       1.05065034E-09
   13.8000002       1.37746048E-09
   13.9200001       1.69477898E-09
   14.0400000       1.97163996E-09
   14.1599998       2.16883866E-09
   14.2799997       2.24009522E-09
   14.3999996       2.13470552E-09
   14.5200005       1.80184101E-09
   14.6400003       1.19646248E-09
   14.7600002       2.86546398E-10
   14.8800001      -9.38941480E-10
   15.0000000      -2.46216203E-09
   15.1199999      -4.22964508E-09
   15.2399998      -6.14779516E-09
   15.3599997      -8.08176992E-09
   15.4799995      -9.85863569E-09
   15.6000004      -1.12753655E-08
   15.7200003      -1.21117365E-08
   15.8400002      -1.21475976E-08
   15.9600000      -1.11833920E-08
   16.0799999      -9.06221320E-09
   16.2000008      -5.69132563E-09
   16.3199997      -1.06082176E-09
   16.4400005       4.74277240E-09
   16.5599995       1.15297780E-08
   16.6800003       1.90086791E-08
   16.7999992       2.67957354E-08
   16.9200001       3.44321442E-08
   17.0400009       4.14070023E-08
   17.1599998       4.71835833E-08
   17.2800007       5.12258289E-08
   17.3999996       5.30222088E-08
   17.5200005       5.21043226E-08
   17.6399994       4.80590288E-08
   17.7600002       4.05342959E-08
   17.8799992       2.92407769E-08
   18.0000000       1.39533096E-08
   18.1200008      -5.48201173E-09
   18.2399998      -2.91282927E-08
   18.3600006      -5.69185410E-08
   18.4799995      -8.85903830E-08
   18.6000004      -1.23590553E-07
   18.7199993      -1.60947977E-07
   18.8400002      -1.99119540E-07
   18.9599991      -2.35816529E-07
   19.0799999      -2.67826607E-07
   19.2000008      -2.90849925E-07
   19.3199997      -2.99373653E-07
   19.4400005      -2.86609833E-07
   19.5599995      -2.44523392E-07
   19.6800003      -1.63973539E-07
   19.7999992      -3.49866944E-08
   19.9200001       1.52829344E-07
   20.0400009       4.09730433E-07
   20.1599998       7.45153670E-07
   20.2800007       1.16693400E-06
   20.3999996       1.68045915E-06
   20.5200005       2.28781482E-06
   20.6399994       2.98697910E-06
   20.7600002       3.77113133E-06
   20.8799992       4.62814205E-06
   21.0000000       5.54030612E-06
   21.1200008       6.48436162E-06
   21.2399998       7.43185001E-06
   21.3600006       8.34980801E-06
   21.4799995       9.20181355E-06
   21.6000004       9.94933362E-06
   21.7199993       1.05533491E-05
   21.8400002       1.09761531E-05
   21.9599991       1.11832596E-05
   22.0799999       1.11453028E-05
   22.2000008       1.08398199E-05
   22.3199997       1.02528165E-05
   22.4400005       9.38000176E-06
   22.5599995       8.22760830E-06
   22.6800003       6.81274059E-06
   22.7999992       5.16319824E-06
   22.9200001       3.31677143E-06
   23.0400009       1.32002629E-06
   23.1599998      -7.73371312E-07
   23.2800007      -2.90471667E-06
   23.3999996      -5.01261002E-06
   23.5200005      -7.03546812E-06
   23.6399994      -8.91406853E-06
   23.7600002      -1.05940044E-05
   23.8799992      -1.20279219E-05
   24.0000000      -1.31774150E-05
   24.1200008      -1.40145039E-05
   24.2399998      -1.45226086E-05
   24.3600006      -1.46969905E-05
   24.4799995      -1.45446447E-05
   24.6000004      -1.40836637E-05
   24.7199993      -1.33421245E-05
   24.8400002      -1.23565596E-05
   24.9599991      -1.11701302E-05
   25.0799999      -9.83057544E-06
   25.2000008      -8.38807409E-06
   25.3199997      -6.89313174E-06
   25.4400005      -5.39457960E-06
   25.5599995      -3.93779874E-06
   25.6800003      -2.56322596E-06
   25.7999992      -1.30520368E-06
   25.9200001      -1.91190949E-07
   26.0400009       7.58652845E-07
   26.1599998       1.53153337E-06
   26.2800007       2.12177224E-06
   26.3999996       2.53029407E-06
   26.5200005       2.76391370E-06
   26.6399994       2.83448526E-06
   26.7600002       2.75798288E-06
   26.8799992       2.55356440E-06
   27.0000000       2.24267205E-06
   27.1200008       1.84819942E-06
   27.2399998       1.39374765E-06
   27.3600006       9.02975785E-07
   27.4799995       3.99039749E-07
   27.6000004      -9.58919202E-08
   27.7199993      -5.61067338E-07
   27.8400002      -9.77545142E-07
   27.9599991      -1.32857065E-06
   28.0799999      -1.59994636E-06
   28.2000008      -1.78040023E-06
   28.3199997      -1.86194325E-06
   28.4400005      -1.84019962E-06
   28.5599995      -1.71468298E-06
   28.6800003      -1.48898494E-06
   28.7999992      -1.17084028E-06
   28.9200001      -7.72038561E-07
   29.0400009      -3.08151783E-07
   29.1599998       2.01933460E-07
   29.2800007       7.36683660E-07
   29.3999996       1.27277019E-06
   29.5200005       1.78607593E-06
   29.6399994       2.25280951E-06
   29.7600002       2.65067160E-06
   29.8799992       2.96000167E-06
   30.0000000       3.16483693E-06
   30.1200008       3.25381666E-06
   30.2399998       3.22086271E-06
   30.3600006       3.06559423E-06
   30.4799995       2.79344249E-06
   30.6000004       2.41545126E-06
   30.7199993       1.94777158E-06
   30.8400002       1.41088151E-06
   30.9599991       8.28568545E-07
   31.0799999       2.26741960E-07
   31.2000008      -3.67863208E-07
   31.3199997      -9.29013311E-07
   31.4400005      -1.43226225E-06
   31.5599995      -1.85612907E-06
   31.6800003      -2.18310583E-06
   31.7999992      -2.40044915E-06
   31.9200001      -2.50072162E-06
   32.0400009      -2.48206197E-06
   32.1599998      -2.34818071E-06
   32.2799988      -2.10808980E-06
   32.4000015      -1.77558491E-06
   32.5200005      -1.36851281E-06
   32.6399994      -9.07860397E-07
   32.7599983      -4.16712169E-07
   32.8800011       8.08765890E-08
   33.0000000       5.61037837E-07
   33.1199989       1.00122929E-06
   33.2400017       1.38130042E-06
   33.3600006       1.68443944E-06
   33.4799995       1.89795344E-06
   33.5999985       2.01384660E-06
   33.7200012       2.02916203E-06
   33.8400002       1.94607196E-06
   33.9599991       1.77170477E-06
   34.0800018       1.51771621E-06
   34.2000008       1.19962567E-06
   34.3199997       8.35952108E-07
   34.4399986       4.47195987E-07
   34.5600014       5.47261898E-08
   34.6800003      -3.20365984E-07
   34.7999992      -6.58378553E-07
   34.9199982      -9.42012832E-07
   35.0400009      -1.15723105E-06
   35.1599998      -1.29391185E-06
   35.2799988      -1.34626782E-06
   35.4000015      -1.31301135E-06
   35.5200005      -1.19726656E-06
   35.6399994      -1.00624561E-06
   35.7599983      -7.50723075E-07
   35.8800011      -4.44350718E-07
   36.0000000      -1.02864114E-07
   36.1199989       2.56764963E-07
   36.2400017       6.17181058E-07
   36.3600006       9.61456522E-07
   36.4799995       1.27382737E-06
   36.5999985       1.54032693E-06
   36.7200012       1.74930130E-06
   36.8400002       1.89180321E-06
   36.9599991       1.96186238E-06
   37.0800018       1.95664484E-06
   37.2000008       1.87650414E-06
   37.3199997       1.72494185E-06
   37.4399986       1.50847802E-06
   37.5600014       1.23643997E-06
   37.6800003       9.20668356E-07
   37.7999992       5.75139438E-07
   37.9199982       2.15500464E-07
   38.0400009      -1.41480655E-07
   38.1599998      -4.78547179E-07
   38.2799988      -7.78654680E-07
   38.4000015      -1.02572108E-06
   38.5200005      -1.20539789E-06
   38.6399994      -1.30582407E-06
   38.7599983      -1.31832326E-06
   38.8800011      -1.23799487E-06
   39.0000000      -1.06415962E-06
   39.1199989      -8.00614657E-07
   39.2400017      -4.55672250E-07
   39.3600006      -4.19605612E-08
   39.4799995       4.24013336E-07
   39.5999985       9.22524578E-07
   39.7200012       1.43148475E-06
   39.8400002       1.92744415E-06
   39.9599991       2.38668599E-06
   40.0800018       2.78635048E-06
   40.2000008       3.10552468E-06
   40.3199997       3.32623858E-06
   40.4399986       3.43431043E-06
   40.5600014       3.42000681E-06
   40.6800003       3.27847852E-06
   40.7999992       3.00997226E-06
   40.9199982       2.61980699E-06
   41.0400009       2.11814222E-06
   41.1599998       1.51956033E-06
   41.2799988       8.42497002E-07
   41.4000015       1.08562126E-07
   41.5200005      -6.58214049E-07
   41.6399994      -1.43217460E-06
   41.7599983      -2.18684113E-06
   41.8800011      -2.89571153E-06
   42.0000000      -3.53303471E-06
   42.1199989      -4.07455855E-06
   42.2400017      -4.49824347E-06
   42.3600006      -4.78494303E-06
   42.4799995      -4.91905121E-06
   42.5999985      -4.88910564E-06
   42.7200012      -4.68833605E-06
   42.8400002      -4.31514627E-06
   42.9599991      -3.77349716E-06
   43.0800018      -3.07316077E-06
   43.2000008      -2.22981816E-06
   43.3199997      -1.26496082E-06
   43.4399986      -2.05571567E-07
   43.5600014       9.16438751E-07
   43.6800003       2.06504455E-06
   43.7999992       3.20116533E-06
   43.9199982       4.28395015E-06
   44.0400009       5.27224756E-06
   44.1599998       6.12620761E-06
   44.2799988       6.80895164E-06
   44.4000015       7.28823125E-06
   44.5200005       7.53799168E-06
   44.6399994       7.53976474E-06
   44.7599983       7.28380246E-06
   44.8800011       6.76988748E-06
   45.0000000       6.00775684E-06
   45.1199989       5.01710429E-06
   45.2400017       3.82713324E-06
   45.3600006       2.47566072E-06
   45.4799995       1.00779573E-06
   45.5999985      -5.25767007E-07
   45.7200012      -2.07076664E-06
   45.8400002      -3.57162799E-06
   45.9599991      -4.97384008E-06
   46.0800018      -6.22634479E-06
   46.2000008      -7.28381974E-06
   46.3199997      -8.10872552E-06
   46.4399986      -8.67301424E-06
   46.5600014      -8.95938501E-06
   46.6800003      -8.96203164E-06
   46.7999992      -8.68680672E-06
   46.9199982      -8.15080693E-06
   47.0400009      -7.38137442E-06
   47.1599998      -6.41460520E-06
   47.2799988      -5.29340878E-06
   47.4000015      -4.06527170E-06
   47.5200005      -2.77983895E-06
   47.6399994      -1.48647723E-06
   47.7599983      -2.31955283E-07
   47.8800011       9.41617486E-07
   48.0000000       1.99848046E-06
   48.1199989       2.91045740E-06
   48.2400017       3.65768574E-06
   48.3600006       4.22883522E-06
   48.4799995       4.62082971E-06
   48.5999985       4.83814347E-06
   48.7200012       4.89175090E-06
   48.8400002       4.79783330E-06
   48.9599991       4.57636088E-06
   49.0800018       4.24965720E-06
   49.2000008       3.84104078E-06
   49.3199997       3.37363349E-06
   49.4399986       2.86937757E-06
   49.5600014       2.34830100E-06
   49.6800003       1.82802535E-06
   49.7999992       1.32350146E-06
   49.9199982       8.46937382E-07
   50.0400009       4.07871880E-07
   50.1599998       1.33441258E-08
   50.2799988      -3.31885985E-07
   50.4000015      -6.25106111E-07
   50.5200005      -8.65435595E-07
   50.6399994      -1.05363745E-06
   50.7599983      -1.19195943E-06
   50.8800011      -1.28399085E-06
   51.0000000      -1.33451692E-06
   51.1199989      -1.34934805E-06
   51.2400017      -1.33510343E-06
   51.3600006      -1.29893658E-06
   51.4799995      -1.24819906E-06
   51.5999985      -1.19004926E-06
   51.7200012      -1.13102783E-06
   51.8400002      -1.07662913E-06
   51.9599991      -1.03090622E-06
   52.0800018      -9.96150789E-07
   52.2000008      -9.72689804E-07
   52.3199997      -9.58831492E-07
   52.4399986      -9.50985680E-07
   52.5600014      -9.43966086E-07
   52.6800003      -9.31464967E-07
   52.7999992      -9.06671403E-07
   52.9199982      -8.62986838E-07
   53.0400009      -7.94775190E-07
   53.1599998      -6.98078566E-07
   53.2799988      -5.71224234E-07
   53.4000015      -4.15255187E-07
   53.5200005      -2.34128009E-07
   53.6399994      -3.46425395E-08
   53.7599983       1.73910081E-07
   53.8800011       3.80364867E-07
   54.0000000       5.72523106E-07
   54.1199989       7.38147378E-07
   54.2400017       8.66023186E-07
   54.3600006       9.46989246E-07
   54.4799995       9.74834734E-07
   54.5999985       9.46974126E-07
   54.7200012       8.64825097E-07
   54.8400002       7.33846321E-07
   54.9599991       5.63220169E-07
   55.0800018       3.65201601E-07
   55.2000008       1.54186893E-07
   55.3199997      -5.44178747E-08
   55.4399986      -2.45427316E-07
   55.5600014      -4.05095477E-07
   55.6800003      -5.22212190E-07
   55.7999992      -5.88978082E-07
   55.9199982      -6.01580098E-07
   56.0400009      -5.60418414E-07
   56.1599998      -4.69967603E-07
   56.2799988      -3.38291983E-07
   56.4000015      -1.76263740E-07
   56.5200005       3.43731066E-09
   56.6399994       1.87447412E-07
   56.7599983       3.62860732E-07
   56.8800011       5.18284878E-07
   57.0000000       6.44716920E-07
   57.1199989       7.36165532E-07
   57.2400017       7.89971068E-07
   57.3600006       8.06805190E-07
   57.4799995       7.90361526E-07
   57.5999985       7.46779961E-07
   57.7200012       6.83868677E-07
   57.8400002       6.10207678E-07
   57.9599991       5.34224228E-07
   58.0800018       4.63332270E-07
   58.2000008       4.03217825E-07
   58.3199997       3.57335267E-07
   58.4399986       3.26659261E-07
   58.5600014       3.09709179E-07
   58.6800003       3.02836469E-07
   58.7999992       3.00739742E-07
   58.9199982       2.97149569E-07
   59.0400009       2.85610298E-07
   59.1599998       2.60275982E-07
   59.2799988       2.16638369E-07
   59.4000015       1.52112634E-07
   59.5200005       6.64214070E-08
   59.6399994      -3.82613266E-08
   59.7599983      -1.57421326E-07
   59.8800011      -2.84560087E-07
   60.0000000      -4.11763040E-07
   60.1199989      -5.30426576E-07
   60.2400017      -6.32076762E-07
   60.3600006      -7.09204130E-07
   60.4799995      -7.56036684E-07
   60.5999985      -7.69178712E-07
   60.7200012      -7.48055982E-07
   60.8400002      -6.95119923E-07
   60.9599991      -6.15788736E-07
   61.0800018      -5.18121510E-07
   61.2000008      -4.12242287E-07
   61.3199997      -3.09554196E-07
   61.4399986      -2.21796824E-07
   61.5600014      -1.60016640E-07
   61.6800003      -1.33526697E-07
   61.7999992      -1.48937588E-07
   61.9199982      -2.09340598E-07
   62.0400009      -3.13717720E-07
   62.1599998      -4.56640919E-07
   62.2799988      -6.28306850E-07
   62.4000015      -8.14931070E-07
   62.5200005      -9.99499548E-07
   62.6399994      -1.16284775E-06
   62.7599983      -1.28500903E-06
   62.8800011      -1.34674576E-06
   63.0000000      -1.33115566E-06
   63.1199989      -1.22522624E-06
   63.2400017      -1.02120703E-06
   63.3600006      -7.17671867E-07
   63.4799995      -3.20158080E-07
   63.5999985       1.58696807E-07
   63.7200012       6.99566158E-07
   63.8400002       1.27738667E-06
   63.9599991       1.86280113E-06
   64.0800018       2.42398801E-06
   64.1999969       2.92874142E-06
   64.3199997       3.34662946E-06
   64.4400024       3.65105439E-06
   64.5599976       3.82104236E-06
   64.6800003       3.84260920E-06
   64.8000031       3.70959560E-06
   64.9199982       3.42390831E-06
   65.0400009       2.99516728E-06
   65.1600037       2.43981253E-06
   65.2799988       1.77977734E-06
   65.4000015       1.04087349E-06
   65.5199966       2.51052171E-07
   65.6399994      -5.61288289E-07
   65.7600021      -1.36879783E-06
   65.8799973      -2.14635452E-06
   66.0000000      -2.87185662E-06
   66.1200027      -3.52660413E-06
   66.2399979      -4.09530276E-06
   66.3600006      -4.56575981E-06
   66.4800034      -4.92838399E-06
   66.5999985      -5.17561512E-06
   66.7200012      -5.30140824E-06
   66.8399963      -5.30088846E-06
   66.9599991      -5.17025546E-06
   67.0800018      -4.90698039E-06
   67.1999969      -4.51028973E-06
   67.3199997      -3.98187785E-06
   67.4400024      -3.32676404E-06
   67.5599976      -2.55415580E-06
   67.6800003      -1.67819746E-06
   67.8000031      -7.18452327E-07
   67.9199982       2.99985714E-07
   68.0400009       1.34684205E-06
   68.1600037       2.38750908E-06
   68.2799988       3.38438076E-06
   68.4000015       4.29861211E-06
   68.5199966       5.09218944E-06
   68.6399994       5.73016814E-06
   68.7600021       6.18289096E-06
   68.8799973       6.42802024E-06
   69.0000000       6.45219188E-06
   69.1200027       6.25216035E-06
   69.2399979       5.83530800E-06
   69.3600006       5.21948368E-06
   69.4800034       4.43215049E-06
   69.5999985       3.50891355E-06
   69.7200012       2.49151617E-06
   69.8399963       1.42545935E-06
   69.9599991       3.57409192E-07
   70.0800018      -6.67424615E-07
   70.1999969      -1.60775721E-06
   70.3199997      -2.42838109E-06
   70.4400024      -3.10186874E-06
   70.5599976      -3.60972967E-06
   70.6800003      -3.94296467E-06
   70.8000031      -4.10201847E-06
   70.9199982      -4.09615541E-06
   71.0400009      -3.94233530E-06
   71.1600037      -3.66369022E-06
   71.2799988      -3.28771625E-06
   71.4000015      -2.84431621E-06
   71.5199966      -2.36382130E-06
   71.6399994      -1.87511409E-06
   71.7600021      -1.40397219E-06
   71.8799973      -9.71713234E-07
   72.0000000      -5.94213930E-07
   72.1200027      -2.81341727E-07
   72.2399979      -3.68110982E-08
   72.3600006       1.41548000E-07
   72.4800034       2.61144862E-07
   72.5999985       3.33659756E-07
   72.7200012       3.73823468E-07