  -30.0000000       0.00000000    
  -29.8799992       0.00000000    
  -29.7600002       0.00000000    
  -29.6399994       0.00000000    
  -29.5200005       0.00000000    
  -29.3999996       0.00000000    
  -29.2800007       2.80259693E-44
  -29.1599998      -1.24295174E-42
  -29.0400009      -1.87059332E-41
  -28.9200001      -1.17874424E-40
  -28.7999992      -4.73554803E-40
  -28.6800003      -1.30140550E-39
  -28.5599995      -2.17950817E-39
  -28.4400005       1.12031010E-40
  -28.3199997       1.54959536E-38
  -28.2000008       6.29173370E-38
  -28.0799999       1.60628141E-37
  -27.9599991       2.89597184E-37
  -27.8400002       3.29361460E-37
  -27.7199993       1.16992293E-38
  -27.6000004      -1.00364772E-36
  -27.4799995      -2.83101840E-36
  -27.3600006      -4.90348959E-36
  -27.2399998      -5.74774156E-36
  -27.1200008      -3.60610192E-36
  -27.0000000       1.82063136E-36
  -26.8799992       7.48606087E-36
  -26.7600002       7.63271427E-36
  -26.6399994       5.70725491E-38
  -26.5200005      -1.98582386E-36
  -26.3999996       4.02493571E-35
  -26.2800007       1.82870095E-34
  -26.1599998       4.54972517E-34
  -26.0400009       7.75251106E-34
  -25.9200001       8.63289572E-34
  -25.7999992       2.25214409E-34
  -25.6800003      -1.68248286E-33
  -25.5599995      -5.04669737E-33
  -25.4400005      -9.11525486E-33
  -25.3199997      -1.17055735E-32
  -25.2000008      -9.25438711E-33
  -25.0799999       2.12266784E-33
  -24.9599991       2.43781982E-32
  -24.8400002       5.45313710E-32
  -24.7199993       8.21760947E-32
  -24.6000004       8.93828213E-32
  -24.4799995       5.48163637E-32
  -24.3600006      -3.72505402E-32
  -24.2399998      -1.84578227E-31
  -24.1200008      -3.55533956E-31
  -24.0000000      -4.84943424E-31
  -23.8799992      -4.83582342E-31
  -23.7600002      -2.64628064E-31
  -23.6399994       2.15693551E-31
  -23.5200005       9.13756992E-31
  -23.3999996       1.66767195E-30
  -23.2800007       2.19958954E-30
  -23.1599998       2.16654574E-30
  -23.0400009       1.26314908E-30
  -22.9200001      -6.38899423E-31
  -22.7999992      -3.35003740E-30
  -22.6800003      -6.27309463E-30
  -22.5599995      -8.42247608E-30
  -22.4400005      -8.59794485E-30
  -22.3199997      -5.72439568E-30
  -22.2000008       6.86267379E-31
  -22.0799999       1.00620940E-29
  -21.9599991       2.04578658E-29
  -21.8400002       2.85989793E-29
  -21.7199993       3.04438878E-29
  -21.6000004       2.23097724E-29
  -21.4799995       2.41238242E-30
  -21.3600006      -2.75619112E-29
  -21.2399998      -6.14333254E-29
  -21.1200008      -8.87072198E-29
  -21.0000000      -9.64579684E-29
  -20.8799992      -7.30097412E-29
  -20.7600002      -1.28644958E-29
  -20.6399994       7.84014844E-29
  -20.5200005       1.81131906E-28
  -20.3999996       2.62480707E-28
  -20.2800007       2.82663153E-28
  -20.1599998       2.06698457E-28
  -20.0400009       1.97792042E-29
  -19.9200001      -2.57816008E-28
  -19.7999992      -5.62081354E-28
  -19.6800003      -7.89109832E-28
  -19.5599995      -8.15836924E-28
  -19.4400005      -5.37926148E-28
  -19.3199997       8.13248836E-29
  -19.2000008       9.64303590E-28
  -19.0799999       1.89349401E-27
  -18.9599991       2.52710821E-27
  -18.8400002       2.47028538E-27
  -18.7199993       1.40204253E-27
  -18.6000004      -7.63194952E-28
  -18.4799995      -3.72462679E-27
  -18.3600006      -6.71841479E-27
  -18.2399998      -8.58232131E-27
  -18.1200008      -8.00750210E-27
  -18.0000000      -3.97370693E-27
  -17.8799992       3.70884495E-27
  -17.7600002       1.39072526E-26
  -17.6399994       2.39382569E-26
  -17.5200005       2.98244211E-26
  -17.3999996       2.71757282E-26
  -17.2800007       1.26680500E-26
  -17.1599998      -1.41518056E-26
  -17.0400009      -4.92610540E-26
  -16.9200001      -8.34627040E-26
  -16.7999992      -1.03301668E-25
  -16.6800003      -9.40378775E-26
  -16.5599995      -4.45620962E-26
  -16.4400005       4.66411052E-26
  -16.3199997       1.66199903E-25
  -16.2000008       2.83526002E-25
  -16.0799999       3.53749685E-25
  -15.9600000       3.27379790E-25
  -15.8400002       1.66370740E-25
  -15.7200003      -1.36231299E-25
  -15.6000004      -5.38561207E-25
  -15.4799995      -9.41557259E-25
  -15.3599997      -1.19749805E-24
  -15.2399998      -1.14045937E-24
  -15.1199999      -6.38095929E-25
  -15.0000000       3.43888036E-25
  -14.8800001       1.68193014E-24
  -14.7600002       3.06335989E-24
  -14.6400003       4.00860379E-24
  -14.5200005       3.96423391E-24
  -14.3999996       2.46696250E-24
  -14.2799997      -6.46721236E-25
  -14.1599998      -5.03880170E-24
  -14.0400000      -9.75164844E-24
  -13.9200001      -1.32550026E-23
  -13.8000002      -1.37187992E-23
  -13.6800003      -9.52085614E-24
  -13.5600004       8.02755211E-26
  -13.4399996       1.42675387E-23
  -13.3199997       3.02187464E-23
  -13.1999998       4.31552133E-23
  -13.0799999       4.70983661E-23
  -12.9600000       3.63980453E-23
  -12.8400002       7.85722501E-24
  -12.7200003      -3.70096460E-23
  -12.6000004      -9.03053381E-23
  -12.4799995      -1.37513122E-22
  -12.3599997      -1.59434582E-22
  -12.2399998      -1.36631807E-22
  -12.1199999      -5.59953855E-23
  -12.0000000       8.18395037E-23
  -11.8800001       2.56374039E-22
  -11.7600002       4.25097124E-22
  -11.6400003       5.27838166E-22
  -11.5200005       4.99089247E-22
  -11.3999996       2.87730969E-22
  -11.2799997      -1.19152580E-22
  -11.1599998      -6.74540294E-22
  -11.0400000      -1.26004659E-21
  -10.9200001      -1.69323801E-21
  -10.8000002      -1.75961996E-21
  -10.6800003      -1.26963732E-21
  -10.5600004      -1.32874342E-22
  -10.4399996       1.56749706E-21
  -10.3199997       3.52451198E-21
  -10.1999998       5.20869694E-21
  -10.0799999       5.94309883E-21
  -9.96000004       5.05983715E-21
  -9.84000015       2.12268197E-21
  -9.72000027      -2.82813597E-21
  -9.60000038      -9.07891711E-21
  -9.47999954      -1.51781164E-20
  -9.35999966      -1.90830648E-20
  -9.23999977      -1.85617568E-20
  -9.11999989      -1.18302919E-20
  -9.00000000       1.67775705E-21
  -8.88000011       2.06005664E-20
  -8.76000023       4.12490350E-20
  -8.64000034       5.77808599E-20
  -8.52000046       6.31371775E-20
  -8.39999962       5.07684007E-20
  -8.27999973       1.69361111E-20
  -8.15999985      -3.68958193E-20
  -8.03999996      -1.02301620E-19
  -7.92000008      -1.63590721E-19
  -7.80000019      -1.99673787E-19
  -7.67999983      -1.88424687E-19
  -7.55999994      -1.13216198E-19
  -7.44000006       2.95133357E-20
  -7.32000017       2.23609589E-19
  -7.19999981       4.29943874E-19
  -7.07999992       5.88998246E-19
  -6.96000004       6.30941111E-19
  -6.84000015       4.93186433E-19
  -6.71999979       1.43085211E-19
  -6.59999990      -3.99192685E-19
  -6.48000002      -1.04466346E-18
  -6.36000013      -1.63432515E-18
  -6.23999977      -1.95936422E-18
  -6.11999989      -1.80551690E-18
  -6.00000000      -1.01797737E-18
  -5.88000011       4.24665738E-19
  -5.76000023       2.34665453E-18
  -5.63999987       4.34563595E-18
  -5.51999998       5.82142377E-18
  -5.40000010       6.07896728E-18
  -5.28000021       4.50549605E-18
  -5.15999985       7.98960519E-19
  -5.03999996      -4.80071474E-18
  -4.92000008      -1.13477922E-17
  -4.80000019      -1.71742399E-17
  -4.67999983      -2.00901706E-17
  -4.55999994      -1.78350165E-17
  -4.44000006      -8.75180249E-18
  -4.32000017       7.42257867E-18
  -4.19999981       2.88400160E-17
  -4.07999992       5.11466188E-17
  -3.96000004       6.76739686E-17
  -3.83999991       7.04205987E-17
  -3.72000003       5.18839907E-17
  -3.59999990       7.57967598E-18
  -3.48000002      -6.11895145E-17
  -3.35999990      -1.45016170E-16
  -3.24000001      -2.25403991E-16
  -3.11999989      -2.76001742E-16
  -3.00000000      -2.66697350E-16
  -2.88000011      -1.70683611E-16
  -2.75999999       2.61814410E-17
  -2.64000010       3.15335517E-16
  -2.51999998       6.57307308E-16
  -2.40000010       9.78449156E-16
  -2.27999997       1.17570958E-15
  -2.16000009       1.13170897E-15
  -2.03999996       7.40577846E-16
  -1.91999996      -5.76607422E-17
  -1.79999995      -1.23961366E-15
  -1.67999995      -2.66652812E-15
  -1.55999994      -4.06858724E-15
  -1.44000006      -5.05662872E-15
  -1.32000005      -5.17005363E-15
  -1.20000005      -3.96413071E-15
  -1.08000004      -1.13128079E-15
 -0.959999979       3.35979663E-15
 -0.839999974       9.13434570E-15
 -0.720000029       1.53270595E-14
 -0.600000024       2.05822620E-14
 -0.479999989       2.31735306E-14
 -0.360000014       2.12627428E-14
 -0.239999995       1.32933495E-14
 -0.119999997      -1.52089170E-15
  -1.11022302E-15  -2.26879096E-14
  0.119999997      -4.80199952E-14
  0.239999995      -7.34385968E-14
  0.360000014      -9.31321941E-14
  0.479999989      -1.00168056E-13
  0.600000024      -8.75951533E-14
  0.720000029      -4.99806800E-14
  0.839999974       1.47934236E-14
  0.959999979       1.03767601E-13
   1.08000004       2.07567429E-13
   1.20000005       3.09933638E-13
   1.32000005       3.88533389E-13
   1.44000006       4.17344219E-13
   1.55999994       3.70676282E-13
   1.67999995       2.28583211E-13
   1.79999995      -1.69545283E-14
   1.91999996      -3.56055300E-13
   2.03999996      -7.56437502E-13
   2.16000009      -1.16178790E-12
   2.27999997      -1.49428169E-12
   2.40000010      -1.66214351E-12
   2.51999998      -1.57245397E-12
   2.64000010      -1.14846663E-12
   2.75999999      -3.49615356E-13
   2.88000011       8.08672465E-13
   3.00000000       2.23909064E-12
   3.11999989       3.77464206E-12
   3.24000001       5.17280533E-12
   3.35999990       6.13458633E-12
   3.48000002       6.33955735E-12
   3.59999990       5.49545652E-12
   3.72000003       3.39799348E-12
   3.83999991      -6.51129219E-15
   3.96000004      -4.56553935E-12
   4.07999992      -9.88326174E-12
   4.19999981      -1.53132854E-11
   4.32000017      -1.99907660E-11
   4.44000006      -2.29093688E-11
   4.55999994      -2.30428072E-11
   4.67999983      -1.95033382E-11
   4.80000019      -1.17219012E-11
   4.92000008       3.72675334E-13
   5.03999996       1.62033494E-11
   5.15999985       3.44537524E-11
   5.28000021       5.30648199E-11
   5.40000010       6.93414076E-11
   5.51999998       8.01798974E-11
   5.63999987       8.24129029E-11
   5.76000023       7.32492400E-11
   5.88000011       5.07691805E-11
   6.00000000       1.44185037E-11
   6.11999989      -3.45670888E-11
   6.23999977      -9.28806337E-11
   6.36000013      -1.55075119E-10
   6.48000002      -2.13762827E-10
   6.59999990      -2.60115207E-10
   6.71999979      -2.84663015E-10
   6.84000015      -2.78359225E-10
   6.96000004      -2.33827180E-10
   7.07999992      -1.46678975E-10
   7.19999981      -1.67594480E-11
   7.32000017       1.50847515E-10
   7.44000006       3.45216106E-10
   7.55999994       5.49528811E-10
   7.67999983       7.41695871E-10
   7.80000019       8.95705898E-10
   7.92000008       9.83703785E-10
   8.03999996       9.78712222E-10
   8.15999985       8.57833193E-10
   8.27999973       6.05685280E-10
   8.39999962       2.17767845E-10
   8.52000046      -2.96607683E-10
   8.64000034      -9.12200426E-10
   8.76000023      -1.58690816E-09
   8.88000011      -2.26234920E-09
   9.00000000      -2.86620416E-09
   9.11999989      -3.31644623E-09
   9.23999977      -3.52744056E-09
   9.35999966      -3.41771611E-09
   9.47999954      -2.91903124E-09
   9.60000038      -1.98614769E-09
   9.72000027      -6.06564743E-10
   9.84000015       1.19069254E-09
   9.96000004       3.32824701E-09
   10.0799999       5.67654102E-09
   10.1999998       8.05401790E-09
   10.3199997       1.02321680E-08
   10.4399996       1.19460699E-08
   10.5600004       1.29106965E-08
   10.6800003       1.28428157E-08
   10.8000002       1.14878000E-08
   10.9200001       8.65005845E-09
   11.0400000       4.22521129E-09
   11.1599998      -1.76842063E-09
   11.2799997      -9.16197873E-09
   11.3999996      -1.76151342E-08
   11.5200005      -2.66055054E-08
   11.6400003      -3.54317073E-08
   11.7600002      -4.32329195E-08
   11.8800001      -4.90270864E-08
   12.0000000      -5.17686978E-08
   12.1199999      -5.04257294E-08
   12.2399998      -4.40734880E-08
   12.3599997      -3.20012710E-08
   12.4799995      -1.38256233E-08
   12.6000004       1.03978310E-08
   12.7200003       4.00738109E-08
   12.8400002       7.39890069E-08
   12.9600000       1.10267550E-07
   13.0799999       1.46371548E-07
   13.1999998       1.79156871E-07
   13.3199997       2.04991935E-07
   13.4399996       2.19943686E-07
   13.5600004       2.20031097E-07
   13.6800003       2.01540644E-07
   13.8000002       1.61392620E-07
   13.9200001       9.75417720E-08
   14.0400000       9.38876266E-09
   14.1599998      -1.01824213E-07
   14.2799997      -2.32665357E-07
   14.3999996      -3.77245357E-07
   14.5200005      -5.27062014E-07
   14.6400003      -6.70986537E-07
   14.7600002      -7.95416099E-07
   14.8800001      -8.84607232E-07
   15.0000000      -9.21196090E-07
   15.1199999      -8.86899443E-07
   15.2399998      -7.63375908E-07
   15.3599997      -5.33215996E-07
   15.4799995      -1.81015736E-07
   15.6000004       3.05519791E-07
   15.7200003       9.34506375E-07
   15.8400002       1.70890894E-06
   15.9600000       2.62573394E-06
   16.0799999       3.67544658E-06
   16.2000008       4.84166776E-06
   16.3199997       6.10118423E-06
   16.4400005       7.42430393E-06
   16.5599995       8.77554885E-06
   16.6800003       1.01146825E-05
   16.7999992       1.13980377E-05
   16.9200001       1.25800743E-05
   17.0400009       1.36151266E-05
   17.1599998       1.44592414E-05
   17.2800007       1.50720216E-05
   17.3999996       1.54184017E-05
   17.5200005       1.54702393E-05
   17.6399994       1.52076800E-05
   17.7600002       1.46201955E-05
   17.8799992       1.37072702E-05
   18.0000000       1.24786757E-05
   18.1200008       1.09543525E-05
   18.2399998       9.16387489E-06
   18.3600006       7.14553971E-06
   18.4799995       4.94512506E-06
   18.6000004       2.61436821E-06
   18.7199993       2.09230279E-07
   18.8400002      -2.21196478E-06
   18.9599991      -4.59045486E-06
   19.0799999      -6.86893645E-06
   19.2000008      -8.99337465E-06
   19.3199997      -1.09146449E-05
   19.4400005      -1.25899778E-05
   19.5599995      -1.39841313E-05
   19.6800003      -1.50702999E-05
   19.7999992      -1.58307103E-05
   19.9200001      -1.62569177E-05
   20.0400009      -1.63498098E-05
   20.1599998      -1.61193384E-05
   20.2800007      -1.55839753E-05
   20.3999996      -1.47699775E-05
   20.5200005      -1.37104153E-05
   20.6399994      -1.24440830E-05
   20.7600002      -1.10142546E-05
   20.8799992      -9.46735872E-06
   21.0000000      -7.85159136E-06
   21.1200008      -6.21549998E-06
   21.2399998      -4.60656838E-06
   21.3600006      -3.06983884E-06
   21.4799995      -1.64659627E-06
   21.6000004      -3.73154734E-07
   21.7199993       7.20223454E-07
   21.8400002       1.61024207E-06
   21.9599991       2.28127965E-06
   22.0799999       2.72586271E-06
   22.2000008       2.94487177E-06
   22.3199997       2.94745632E-06
   22.4400005       2.75064372E-06
   22.5599995       2.37863674E-06
   22.6800003       1.86181228E-06
   22.7999992       1.23543907E-06
   22.9200001       5.38163306E-07
   23.0400009      -1.89688990E-07
   23.1599998      -9.07917297E-07
   23.2800007      -1.57827981E-06
   23.3999996      -2.16626427E-06
   23.5200005      -2.64270238E-06
   23.6399994      -2.98513783E-06
   23.7600002      -3.17886793E-06
   23.8799992      -3.21758830E-06
   24.0000000      -3.10359587E-06
   24.1200008      -2.84752991E-06
   24.2399998      -2.46765012E-06
   24.3600006      -1.98869429E-06
   24.4799995      -1.44036812E-06
   24.6000004      -8.55561268E-07
   24.7199993      -2.68391858E-07
   24.8400002       2.87800248E-07
   24.9599991       7.82387929E-07
   25.0799999       1.18919809E-06
   25.2000008       1.48795289E-06
   25.3199997       1.66532266E-06
   25.4400005       1.71552983E-06
   25.5599995       1.64047276E-06
   25.6800003       1.44937439E-06
   25.7999992       1.15798775E-06
   25.9200001       7.87425734E-07
   26.0400009       3.62702167E-07
   26.1599998      -8.89090188E-08
   26.2800007      -5.39584505E-07
   26.3999996      -9.62616014E-07
   26.5200005      -1.33392598E-06
   26.6399994      -1.63334380E-06
   26.7600002      -1.84557746E-06
   26.8799992      -1.96083761E-06
   27.0000000      -1.97510121E-06
   27.1200008      -1.89002265E-06
   27.2399998      -1.71252998E-06
   27.3600006      -1.45415174E-06
   27.4799995      -1.13014369E-06
   27.6000004      -7.58481065E-07
   27.7199993      -3.58789265E-07
   27.8400002       4.87226366E-08
   27.9599991       4.44269062E-07
   28.0799999       8.09390599E-07
   28.2000008       1.12772125E-06
   28.3199997       1.38560233E-06
   28.4400005       1.57253442E-06
   28.5599995       1.68147426E-06
   28.6800003       1.70898124E-06
   28.7999992       1.65523045E-06
   28.9200001       1.52390464E-06
   29.0400009       1.32198045E-06
   29.1599998       1.05941751E-06
   29.2800007       7.48763114E-07
   29.3999996       4.04678190E-07
   29.5200005       4.33920349E-08
   29.6399994      -3.17905915E-07
   29.7600002      -6.61727654E-07
   29.8799992      -9.70987116E-07
   30.0000000      -1.22972040E-06
   30.1200008      -1.42380168E-06
   30.2399998      -1.54162512E-06
   30.3600006      -1.57471948E-06
   30.4799995      -1.51826043E-06
   30.6000004      -1.37144366E-06
   30.7199993      -1.13769011E-06
   30.8400002      -8.24653625E-07
   30.9599991      -4.44017701E-07
   31.0799999      -1.10751186E-08
   31.2000008       4.55902068E-07
   31.3199997       9.36479694E-07
   31.4400005       1.40903080E-06
   31.5599995       1.85181011E-06
   31.6800003       2.24407654E-06
   31.7999992       2.56720159E-06
   31.9200001       2.80569498E-06
   32.0400009       2.94808706E-06
   32.1599998       2.98760688E-06
   32.2799988       2.92260802E-06
   32.4000015       2.75671073E-06
   32.5200005       2.49863729E-06
   32.6399994       2.16174840E-06
   32.7599983       1.76329672E-06
   32.8800011       1.32344110E-06
   33.0000000       8.64075332E-07
   33.1199989       4.07548185E-07
   33.2400017      -2.46506762E-08
   33.3600006      -4.13148257E-07
   33.4799995      -7.41809004E-07
   33.5999985      -9.98641099E-07
   33.7200012      -1.17642583E-06
   33.8400002      -1.27302724E-06
   33.9599991      -1.29135537E-06
   34.0800018      -1.23899031E-06
   34.2000008      -1.12748819E-06
   34.3199997      -9.71422423E-07
   34.4399986      -7.87227634E-07
   34.5600014      -5.91932860E-07
   34.6800003      -4.01876292E-07
   34.7999992      -2.31498376E-07
   34.9199982      -9.23029404E-08
   35.0400009       7.93518851E-09
   35.1599998       6.56573604E-08
   35.2799988       8.16674586E-08
   35.4000015       6.09277606E-08
   35.5200005       1.20226957E-08
   35.6399994      -5.36657119E-08
   35.7599983      -1.23003943E-07
   35.8800011      -1.82290606E-07
   36.0000000      -2.18482654E-07
   36.1199989      -2.20366687E-07
   36.2400017      -1.79582230E-07
   36.3600006      -9.14165810E-08
   36.4799995       4.46902746E-08
   36.5999985       2.24968431E-07
   36.7200012       4.41480267E-07
   36.8400002       6.82606355E-07
   36.9599991       9.33814817E-07
   37.0800018       1.17865352E-06
   37.2000008       1.39988799E-06
   37.3199997       1.58070111E-06
   37.4399986       1.70586679E-06
   37.5600014       1.76281662E-06
   37.6800003       1.74252909E-06
   37.7999992       1.64018616E-06
   37.9199982       1.45555703E-06
   38.0400009       1.19309630E-06
   38.1599998       8.61751573E-07
   38.2799988       4.74502684E-07
   38.4000015       4.76637219E-08
   38.5200005      -4.00006769E-07
   38.6399994      -8.48334651E-07
   38.7599983      -1.27683779E-06
   38.8800011      -1.66585141E-06
   39.0000000      -1.99760962E-06
   39.1199989      -2.25722056E-06
   39.2400017      -2.43348586E-06
   39.3600006      -2.51950928E-06
   39.4799995      -2.51306415E-06
   39.5999985      -2.41668704E-06
   39.7200012      -2.23749203E-06
   39.8400002      -1.98670341E-06
   39.9599991      -1.67893472E-06
   40.0800018      -1.33124922E-06
   40.2000008      -9.62059744E-07
   40.3199997      -5.89936633E-07
   40.4399986      -2.32406506E-07
   40.5600014       9.51749612E-08
   40.6800003       3.80589540E-07
   40.7999992       6.15486954E-07
   40.9199982       7.95817868E-07
   41.0400009       9.21928518E-07
   41.1599998       9.98305154E-07
   41.2799988       1.03298157E-06
   41.4000015       1.03665627E-06
   41.5200005       1.02158936E-06
   41.6399994       1.00037232E-06
   41.7599983       9.84678536E-07
   41.8800011       9.84104076E-07
   42.0000000       1.00520685E-06
   42.1199989       1.05083211E-06
   42.2400017       1.11978954E-06
   42.3600006       1.20691641E-06
   42.4799995       1.30352305E-06
   42.5999985       1.39818098E-06
   42.7200012       1.47778383E-06
   42.8400002       1.52878090E-06
   42.9599991       1.53846986E-06
   43.0800018       1.49622679E-06
   43.2000008       1.39456222E-06
   43.3199997       1.22990639E-06
   43.4399986       1.00305681E-06
   43.5600014       7.19253421E-07
   43.6800003       3.87883830E-07
   43.7999992       2.18557599E-08
   43.9199982      -3.63297602E-07
   44.0400009      -7.50490301E-07
   44.1599998      -1.12223472E-06
   44.2799988      -1.46177160E-06
   44.4000015      -1.75408570E-06
   44.5200005      -1.98673752E-06
   44.6399994      -2.15045930E-06
   44.7599983      -2.23949655E-06
   44.8800011      -2.25169561E-06
   45.0000000      -2.18836885E-06
   45.1199989      -2.05397623E-06
   45.2400017      -1.85567876E-06
   45.3600006      -1.60281604E-06
   45.4799995      -1.30635556E-06
   45.5999985      -9.78353114E-07
   45.7200012      -6.31448643E-07
   45.8400002      -2.78406930E-07
   45.9599991       6.82932253E-08
   46.0800018       3.96832661E-07
   46.2000008       6.96396512E-07
   46.3199997       9.57499424E-07
   46.4399986       1.17229354E-06
   46.5600014       1.33485253E-06
   46.6800003       1.44141723E-06
   46.7999992       1.49057860E-06
   46.9199982       1.48337256E-06
   47.0400009       1.42325860E-06
   47.1599998       1.31596369E-06
   47.2799988       1.16918159E-06
   47.4000015       9.92133891E-07
   47.5200005       7.95014273E-07
   47.6399994       5.88354226E-07
   47.7599983       3.82360724E-07
   47.8800011       1.86283046E-07
   48.0000000       7.86716292E-09
   48.1199989      -1.47050400E-07
   48.2400017      -2.74770343E-07
   48.3600006      -3.73759292E-07
   48.4799995      -4.44480690E-07
   48.5999985      -4.89051160E-07
   48.7200012      -5.10766426E-07
   48.8400002      -5.13553687E-07
   48.9599991      -5.01419834E-07
   49.0800018      -4.77959190E-07
   49.2000008      -4.45981897E-07
   49.3199997      -4.07303503E-07
   49.4399986      -3.62717941E-07
   49.5600014      -3.12151371E-07
   49.6800003      -2.54970701E-07
   49.7999992      -1.90400300E-07
   49.9199982      -1.17987014E-07
   50.0400009      -3.80447034E-08
   50.1599998       4.79866245E-08
   50.2799988       1.37325017E-07
   50.4000015       2.25814404E-07
   50.5200005       3.08094911E-07
   50.6399994       3.77971446E-07
   50.7599983       4.28950869E-07
   50.8800011       4.54897133E-07
   51.0000000       4.50738156E-07
   51.1199989       4.13146665E-07
   51.2400017       3.41118607E-07
   51.3600006       2.36376991E-07
   51.4799995       1.03546625E-07
   51.5999985      -4.99349468E-08
   51.7200012      -2.14180517E-07
   51.8400002      -3.77470684E-07
   51.9599991      -5.27083955E-07
   52.0800018      -6.50273137E-07
   52.2000008      -7.35307765E-07
   52.3199997      -7.72492342E-07
   52.4399986      -7.55071483E-07
   52.5600014      -6.79940570E-07
   52.6800003      -5.48097091E-07
   52.7999992      -3.64786530E-07
   52.9199982      -1.39325877E-07
   53.0400009       1.15390577E-07
   53.1599998       3.83668947E-07
   53.2799988       6.48024582E-07
   53.4000015       8.90347394E-07
   53.5200005       1.09314294E-06
   53.6399994       1.24075700E-06
   53.7599983       1.32050002E-06
   53.8800011       1.32358753E-06
   54.0000000       1.24583289E-06
   54.1199989       1.08804159E-06
   54.2400017       8.56078032E-07
   54.3600006       5.60599233E-07
   54.4799995       2.16471335E-07
   54.5999985      -1.58093329E-07
   54.7200012      -5.42620910E-07
   54.8400002      -9.15610599E-07
   54.9599991      -1.25583631E-06
   55.0800018      -1.54362840E-06
   55.2000008      -1.76205015E-06
   55.3199997      -1.89789171E-06
   55.4399986      -1.94242102E-06
   55.5600014      -1.89184345E-06
   55.6800003      -1.74745162E-06
   55.7999992      -1.51546317E-06
   55.9199982      -1.20657023E-06
   56.0400009      -8.35240655E-07
   56.1599998      -4.18825408E-07
   56.2799988       2.34610358E-08
   56.4000015       4.71619927E-07
   56.5200005       9.05939544E-07
   56.6399994       1.30799663E-06
   56.7599983       1.66153325E-06
   56.8800011       1.95316852E-06
   57.0000000       2.17291517E-06
   57.1199989       2.31448189E-06
   57.2400017       2.37536278E-06
   57.3600006       2.35671541E-06
   57.4799995       2.26305565E-06
   57.5999985       2.10179405E-06
   57.7200012       1.88265574E-06
   57.8400002       1.61702746E-06
   57.9599991       1.31727620E-06
   58.0800018       9.96086555E-07
   58.2000008       6.65854657E-07
   58.3199997       3.38171304E-07
   58.4399986       2.34128219E-08
   58.5600014      -2.69551634E-07
   58.6800003      -5.33539719E-07
   58.7999992      -7.63136882E-07
   58.9199982      -9.54697612E-07
   59.0400009      -1.10629048E-06
   59.1599998      -1.21760581E-06
   59.2799988      -1.28984061E-06
   59.4000015      -1.32556693E-06
   59.5200005      -1.32858008E-06
   59.6399994      -1.30371416E-06
   59.7599983      -1.25661279E-06
   59.8800011      -1.19343770E-06
   60.0000000      -1.12050895E-06
   60.1199989      -1.04387948E-06
   60.2400017      -9.68862082E-07
   60.3600006      -8.99543522E-07
   60.4799995      -8.38335382E-07
   60.5999985      -7.85618113E-07
   60.7200012      -7.39539018E-07
   60.8400002      -6.96017764E-07
   60.9599991      -6.48995524E-07
   61.0800018      -5.90939010E-07
   61.2000008      -5.13583075E-07
   61.3199997      -4.08860785E-07
   61.4399986      -2.69942404E-07
   61.5600014      -9.22808496E-08
   61.6800003       1.25450867E-07
   61.7999992       3.80645275E-07
   61.9199982       6.66369488E-07
   62.0400009       9.71371719E-07
   62.1599998       1.28052034E-06
   62.2799988       1.57566831E-06
   62.4000015       1.83688667E-06
   62.5200005       2.04396952E-06
   62.6399994       2.17808065E-06
   62.7599983       2.22338872E-06
   62.8800011       2.16853573E-06
   63.0000000       2.00779436E-06
   63.1199989       1.74179945E-06
   63.2400017       1.37778068E-06
   63.3600006       9.29269447E-07
   63.4799995       4.15310211E-07
   63.5999985      -1.40752448E-07
   63.7200012      -7.12793906E-07
   63.8400002      -1.27360033E-06
   63.9599991      -1.79658173E-06
   64.0800018      -2.25736562E-06
   64.1999969      -2.63515312E-06
   64.3199997      -2.91375022E-06
   64.4400024      -3.08222752E-06
   64.5599976      -3.13519922E-06
   64.6800003      -3.07275059E-06
   64.8000031      -2.90006869E-06
   64.9199982      -2.62684671E-06
   65.0400009      -2.26654015E-06
   65.1600037      -1.83554789E-06
   65.2799988      -1.35237758E-06
   65.4000015      -8.36834886E-07
   65.5199966      -3.09262930E-07
   65.6399994       2.10163549E-07
   65.7600021       7.02093473E-07
   65.8799973       1.14861575E-06
   66.0000000       1.53384633E-06
   66.1200027       1.84448891E-06
   66.2399979       2.07036146E-06
   66.3600006       2.20486686E-06
   66.4800034       2.24537575E-06
   66.5999985       2.19347839E-06
   66.7200012       2.05506194E-06
   66.8399963       1.84017131E-06
   66.9599991       1.56262138E-06
   67.0800018       1.23935308E-06
   67.1999969       8.89538853E-07
   67.3199997       5.33479579E-07
   67.4400024       1.91354033E-07
   67.5599976      -1.18092146E-07
   67.6800003      -3.78813780E-07
   67.8000031      -5.78581364E-07
   67.9199982      -7.09837366E-07
   68.0400009      -7.70204963E-07
   68.1600037      -7.62588115E-07
   68.2799988      -6.94838434E-07
   68.4000015      -5.79007633E-07
   68.5199966      -4.30245194E-07
   68.6399994      -2.65441798E-07
   68.7600021      -1.01744497E-07
   68.8799973       4.49128521E-08
   69.0000000       1.61124333E-07
   69.1200027       2.37047161E-07
   69.2399979       2.67066071E-07
   69.3600006       2.50037033E-07
   69.4800034       1.89105705E-07
   69.5999985       9.11439386E-08
   69.7200012      -3.41168835E-08
   69.8399963      -1.75146909E-07
   69.9599991      -3.19754406E-07
   70.0800018      -4.56178896E-07
   70.1999969      -5.74039120E-07
   70.3199997      -6.65059645E-07
   70.4400024      -7.23532764E-07
   70.5599976      -7.46504668E-07
   70.6800003      -7.33707225E-07
   70.8000031      -6.87280021E-07
   70.9199982      -6.11342045E-07
   71.0400009      -5.11479016E-07
   71.1600037      -3.94210304E-07
   71.2799988      -2.66486097E-07
   71.4000015      -1.35254624E-07
   71.5199966      -7.11945125E-09
   71.6399994       1.11907134E-07
   71.7600021       2.16564004E-07
   71.8799973       3.02431232E-07
   72.0000000       3.65974330E-07
   72.1200027       4.04565782E-07
   72.2399979       4.16503610E-07
   72.3600006       4.01040978E-07
   72.4800034       3.58432118E-07
   72.5999985       2.89990311E-07
   72.7200012       1.98146793E-07