  -30.0000000       0.00000000    
  -29.8799992       0.00000000    
  -29.7600002       0.00000000    
  -29.6399994       0.00000000    
  -29.5200005      -2.80259693E-44
  -29.3999996       1.20651798E-42
  -29.2800007      -4.33842005E-42
  -29.1599998      -1.48187313E-40
  -29.0400009      -1.00672785E-39
  -28.9200001      -3.82451766E-39
  -28.7999992      -9.20243211E-39
  -28.6800003      -1.09270312E-38
  -28.5599995       1.98874534E-38
  -28.4400005       1.61166901E-37
  -28.3199997       5.55885819E-37
  -28.2000008       1.34598910E-36
  -28.0799999       2.39328774E-36
  -27.9599991       2.68488050E-36
  -27.8400002      -3.99811034E-37
  -27.7199993      -1.11653395E-35
  -27.6000004      -3.35354275E-35
  -27.4799995      -6.54308051E-35
  -27.3600006      -9.01369068E-35
  -27.2399998      -6.95211810E-35
  -27.1200008       5.10329049E-35
  -27.0000000       3.14866631E-34
  -26.8799992       7.00582281E-34
  -26.7600002       1.06019360E-33
  -26.6399994       1.09209468E-33
  -26.5200005       4.06270271E-34
  -26.3999996      -1.28084748E-33
  -26.2800007      -3.85129308E-33
  -26.1599998      -6.51768198E-33
  -26.0400009      -7.78749212E-33
  -25.9200001      -5.84986417E-33
  -25.7999992       5.81018251E-34
  -25.6800003       1.12065218E-32
  -25.5599995       2.33806399E-32
  -25.4400005       3.22409536E-32
  -25.3199997       3.20796728E-32
  -25.2000008       1.87220104E-32
  -25.0799999      -7.99447022E-33
  -24.9599991      -4.29177337E-32
  -24.8400002      -7.64486395E-32
  -24.7199993      -9.75737482E-32
  -24.6000004      -9.77630381E-32
  -24.4799995      -7.36121893E-32
  -24.3600006      -2.65139481E-32
  -24.2399998       4.05415718E-32
  -24.1200008       1.26457590E-31
  -24.0000000       2.31643975E-31
  -23.8799992       3.50536718E-31
  -23.7600002       4.57958211E-31
  -23.6399994       4.96384275E-31
  -23.5200005       3.76146155E-31
  -23.3999996       4.16549464E-34
  -23.2800007      -6.81233160E-31
  -23.1599998      -1.60224939E-30
  -23.0400009      -2.52061667E-30
  -22.9200001      -3.01295302E-30
  -22.7999992      -2.55774875E-30
  -22.6800003      -7.19959727E-31
  -22.5599995       2.59331940E-30
  -22.4400005       6.88535152E-30
  -22.3199997       1.09460988E-29
  -22.2000008       1.29707199E-29
  -22.0799999       1.09920202E-29
  -21.9599991       3.60153677E-30
  -21.8400002      -9.19548117E-30
  -21.7199993      -2.52694678E-29
  -21.6000004      -4.01457328E-29
  -21.4799995      -4.75812819E-29
  -21.3600006      -4.10781538E-29
  -21.2399998      -1.61841761E-29
  -21.1200008       2.69154758E-29
  -21.0000000       8.13194549E-29
  -20.8799992       1.32796565E-28
  -20.7600002       1.61477442E-28
  -20.6399994       1.46265821E-28
  -20.5200005       7.16610004E-29
  -20.3999996      -6.42305160E-29
  -20.2800007      -2.42637610E-28
  -20.1599998      -4.20831774E-28
  -20.0400009      -5.35509925E-28
  -19.9200001      -5.14976526E-28
  -19.7999992      -3.00336304E-28
  -19.6800003       1.27120404E-28
  -19.5599995       7.18892256E-28
  -19.4400005       1.34260486E-27
  -19.3199997       1.78737835E-27
  -19.2000008       1.80102684E-27
  -19.0799999       1.16214715E-27
  -18.9599991      -2.21592853E-28
  -18.8400002      -2.21249079E-27
  -18.7199993      -4.37637574E-27
  -18.6000004      -5.99427476E-27
  -18.4799995      -6.18834109E-27
  -18.3600006      -4.17274408E-27
  -18.2399998       4.02581421E-28
  -18.1200008       7.09960101E-27
  -18.0000000       1.44614705E-26
  -17.8799992       2.00524529E-26
  -17.7600002       2.08885745E-26
  -17.6399994       1.42901953E-26
  -17.5200005      -9.56621055E-28
  -17.3999996      -2.34151512E-26
  -17.2800007      -4.82232705E-26
  -17.1599998      -6.72211673E-26
  -17.0400009      -7.03770978E-26
  -16.9200001      -4.86160154E-26
  -16.7999992       2.31369109E-27
  -16.6800003       7.78635357E-26
  -16.5599995       1.62019987E-25
  -16.4400005       2.27583191E-25
  -16.3199997       2.40733256E-25
  -16.2000008       1.70305887E-25
  -16.0799999       6.70485162E-28
  -15.9600000      -2.54765489E-25
  -15.8400002      -5.44093094E-25
  -15.7200003      -7.76952261E-25
  -15.6000004      -8.38760203E-25
  -15.4799995      -6.20867010E-25
  -15.3599997      -6.34086026E-26
  -15.2399998       7.98588941E-25
  -15.1199999       1.80108955E-24
  -15.0000000       2.64718665E-24
  -14.8800001       2.94964677E-24
  -14.7600002       2.32701306E-24
  -14.6400003       5.44553296E-25
  -14.5200005      -2.32897653E-24
  -14.3999996      -5.79736128E-24
  -14.2799997      -8.90590514E-24
  -14.1599998      -1.03591581E-23
  -14.0400000      -8.81703917E-24
  -13.9200001      -3.34998619E-24
  -13.8000002       6.03147468E-24
  -13.6800003       1.79237149E-23
  -13.5600004       2.93493049E-23
  -13.4399996       3.60419283E-23
  -13.3199997       3.33194052E-23
  -13.1999998       1.75206891E-23
  -13.0799999      -1.22241949E-23
  -12.9600000      -5.23462853E-23
  -12.8400002      -9.39390838E-23
  -12.7200003      -1.23273615E-22
  -12.6000004      -1.24218721E-22
  -12.4799995      -8.26370800E-23
  -12.3599997       7.81351975E-24
  -12.2399998       1.39787995E-22
  -12.1199999       2.88229605E-22
  -12.0000000       4.10451725E-22
  -11.8800001       4.52219752E-22
  -11.7600002       3.60588446E-22
  -11.6400003       1.02335700E-22
  -11.5200005      -3.15567990E-22
  -11.3999996      -8.29332070E-22
  -11.2799997      -1.31285943E-21
  -11.1599998      -1.59036237E-21
  -11.0400000      -1.47126270E-21
  -10.9200001      -8.06153897E-22
  -10.8000002       4.44837882E-22
  -10.6800003       2.14792208E-21
  -10.5600004       3.95853421E-21
  -10.4399996       5.33559526E-21
  -10.3199997       5.62591788E-21
  -10.1999998       4.22343396E-21
  -10.0799999       7.86086791E-22
  -9.96000004      -4.53287100E-21
  -9.84000015      -1.09063174E-20
  -9.72000027      -1.67878276E-20
  -9.60000038      -2.00734100E-20
  -9.47999954      -1.85122294E-20
  -9.35999966      -1.03485909E-20
  -9.23999977       4.90251047E-21
  -9.11999989       2.57284125E-20
  -9.00000000       4.81873064E-20
  -8.88000011       6.60361095E-20
  -8.76000023       7.16244125E-20
  -8.64000034       5.76169618E-20
  -8.52000046       1.93812747E-20
  -8.39999962      -4.23952165E-20
  -8.27999973      -1.19550979E-19
  -8.15999985      -1.95608944E-19
  -8.03999996      -2.47067604E-19
  -7.92000008      -2.47356110E-19
  -7.80000019      -1.73420186E-19
  -7.67999983      -1.41117675E-20
  -7.55999994       2.21322771E-19
  -7.44000006       4.97106804E-19
  -7.32000017       7.49937970E-19
  -7.19999981       8.95588656E-19
  -7.07999992       8.44380644E-19
  -6.96000004       5.24781268E-19
  -6.84000015      -8.82670667E-20
  -6.71999979      -9.46411874E-19
  -6.59999990      -1.91058807E-18
  -6.48000002      -2.75220795E-18
  -6.36000013      -3.18009194E-18
  -6.23999977      -2.89609581E-18
  -6.11999989      -1.67558782E-18
  -6.00000000       5.39519817E-19
  -5.88000011       3.55582653E-18
  -5.76000023       6.87819911E-18
  -5.63999987       9.72183720E-18
  -5.51999998       1.11081770E-17
  -5.40000010       1.00517880E-17
  -5.28000021       5.82382921E-18
  -5.15999985      -1.74865154E-18
  -5.03999996      -1.20133930E-17
  -4.92000008      -2.33367205E-17
  -4.80000019      -3.31454514E-17
  -4.67999983      -3.82321489E-17
  -4.55999994      -3.53449180E-17
  -4.44000006      -2.20169291E-17
  -4.32000017       2.48743178E-18
  -4.19999981       3.63087290E-17
  -4.07999992       7.44622627E-17
  -3.96000004       1.08900829E-16
  -3.83999991       1.29375349E-16
  -3.72000003       1.25173153E-16
  -3.59999990       8.76244003E-17
  -3.48000002       1.30376891E-17
  -3.35999990      -9.45005079E-17
  -3.24000001      -2.21196447E-16
  -3.11999989      -3.43271299E-16
  -3.00000000      -4.28993839E-16
  -2.88000011      -4.43361450E-16
  -2.75999999      -3.55255915E-16
  -2.64000010      -1.46262036E-16
  -2.51999998       1.80326499E-16
  -2.40000010       5.92328446E-16
  -2.27999997       1.02559437E-15
  -2.16000009       1.38711884E-15
  -2.03999996       1.56574453E-15
  -1.91999996       1.45062450E-15
  -1.79999995       9.55975360E-16
  -1.67999995       4.88163352E-17
  -1.55999994      -1.22526926E-15
  -1.44000006      -2.72444675E-15
  -1.32000005      -4.20727364E-15
  -1.20000005      -5.34887500E-15
  -1.08000004      -5.77942227E-15
 -0.959999979      -5.14404761E-15
 -0.839999974      -3.17885134E-15
 -0.720000029       2.06931486E-16
 -0.600000024       4.85641724E-15
 -0.479999989       1.03142889E-14
 -0.360000014       1.58156772E-14
 -0.239999995       2.03275930E-14
 -0.119999997       2.26498694E-14
  -1.11022302E-15   2.15740867E-14
  0.119999997       1.60890673E-14
  0.239999995       5.61156871E-15
  0.360000014      -9.78783332E-15
  0.479999989      -2.91991027E-14
  0.600000024      -5.07642634E-14
  0.720000029      -7.16793432E-14
  0.839999974      -8.83323498E-14
  0.959999979      -9.65903450E-14
   1.08000004      -9.22343595E-14
   1.20000005      -7.15243565E-14
   1.32000005      -3.18605649E-14
   1.44000006       2.75085673E-14
   1.55999994       1.04796393E-13
   1.67999995       1.95085227E-13
   1.79999995       2.89924118E-13
   1.91999996       3.77223751E-13
   2.03999996       4.41567328E-13
   2.16000009       4.65055999E-13
   2.27999997       4.28799628E-13
   2.40000010       3.15126289E-13
   2.51999998       1.10518630E-13
   2.64000010      -1.90823662E-13
   2.75999999      -5.83041699E-13
   2.88000011      -1.04473006E-12
   3.00000000      -1.53573324E-12
   3.11999989      -1.99544569E-12
   3.24000001      -2.34355829E-12
   3.35999990      -2.48420707E-12
   3.48000002      -2.31431888E-12
   3.59999990      -1.73658342E-12
   3.72000003      -6.76849256E-13
   3.83999991       8.95085709E-13
   3.96000004       2.94334717E-12
   4.07999992       5.34564016E-12
   4.19999981       7.87874974E-12
   4.32000017       1.02145610E-11
   4.44000006       1.19313066E-11
   4.55999994       1.25440092E-11
   4.67999983       1.15563462E-11
   4.80000019       8.53344912E-12
   4.92000008       3.19153579E-12
   5.03999996      -4.50405121E-12
   5.15999985      -1.42451120E-11
   5.28000021      -2.53077455E-11
   5.40000010      -3.65192945E-11
   5.51999998      -4.62840460E-11
   5.63999987      -5.26837012E-11
   5.76000023      -5.36619325E-11
   5.88000011      -4.72920245E-11
   6.00000000      -3.21131004E-11
   6.11999989      -7.50465662E-12
   6.23999977       2.59467430E-11
   6.36000013       6.61484201E-11
   6.48000002       1.09338753E-10
   6.59999990       1.50129631E-10
   6.71999979       1.81813245E-10
   6.84000015       1.96969899E-10
   6.96000004       1.88378452E-10
   7.07999992       1.50184476E-10
   7.19999981       7.92281518E-11
   7.32000017      -2.36224651E-11
   7.44000006      -1.52334534E-10
   7.55999994      -2.95005964E-10
   7.67999983      -4.33835884E-10
   7.80000019      -5.45986423E-10
   7.92000008      -6.05485106E-10
   8.03999996      -5.86207027E-10
   8.15999985      -4.65829986E-10
   8.27999973      -2.30475944E-10
   8.39999962       1.20429097E-10
   8.52000046       5.69723435E-10
   8.64000034       1.07928122E-09
   8.76000023       1.58882496E-09
   8.88000011       2.01757322E-09
   9.00000000       2.26935715E-09
   9.11999989       2.24154628E-09
   9.23999977       1.83769111E-09
   9.35999966       9.83269577E-10
   9.47999954      -3.56675467E-10
   9.60000038      -2.15981699E-09
   9.72000027      -4.33106306E-09
   9.84000015      -6.69199940E-09
   9.96000004      -8.97804942E-09
   10.0799999      -1.08459126E-08
   10.1999998      -1.18932775E-08
   10.3199997      -1.16917889E-08
   10.4399996      -9.83291670E-09
   10.5600004      -5.98470695E-09
   10.6800003       4.44070579E-11
   10.8000002       8.24035684E-09
   10.9200001       1.83239557E-08
   11.0400000       2.97055092E-08
   11.1599998       4.14623038E-08
   11.2799997       5.23473425E-08
   11.3999996       6.08362001E-08
   11.5200005       6.52165681E-08
   11.6400003       6.37212807E-08
   11.7600002       5.47015269E-08
   11.8800001       3.68320023E-08
   12.0000000       9.33456423E-09
   12.1199999      -2.77976699E-08
   12.2399998      -7.35977608E-08
   12.3599997      -1.25968569E-07
   12.4799995      -1.81597770E-07
   12.6000004      -2.35968429E-07
   12.7200003      -2.83484695E-07
   12.8400002      -3.17726546E-07
   12.9600000      -3.31838663E-07
   13.0799999      -3.19047984E-07
   13.1999998      -2.73292898E-07
   13.3199997      -1.89935534E-07
   13.4399996      -6.65160655E-08
   13.5600004       9.65004219E-08
   13.6800003       2.95042184E-07
   13.8000002       5.20875460E-07
   13.9200001       7.61235526E-07
   14.0400000       9.98700671E-07
   14.1599998       1.21135383E-06
   14.2799997       1.37326379E-06
   14.3999996       1.45530032E-06
   14.5200005       1.42627357E-06
   14.6400003       1.25437089E-06
   14.7600002       9.08834465E-07
   14.8800001       3.61810379E-07
   15.0000000      -4.09727193E-07
   15.1199999      -1.42207841E-06
   15.2399998      -2.68306258E-06
   15.3599997      -4.19051685E-06
   15.4799995      -5.93116101E-06
   15.6000004      -7.87991576E-06
   15.7200003      -9.99975964E-06
   15.8400002      -1.22421634E-05
   15.9600000      -1.45481226E-05
   16.0799999      -1.68497791E-05
   16.2000008      -1.90725841E-05
   16.3199997      -2.11379065E-05
   16.4400005      -2.29660127E-05
   16.5599995      -2.44792445E-05
   16.6800003      -2.56052881E-05
   16.7999992      -2.62803424E-05
   16.9200001      -2.64520550E-05
   17.0400009      -2.60820871E-05
   17.1599998      -2.51481506E-05
   17.2800007      -2.36454252E-05
   17.3999996      -2.15873006E-05
   17.5200005      -1.90053688E-05
   17.6399994      -1.59486972E-05
   17.7600002      -1.24823937E-05
   17.8799992      -8.68552343E-06
   18.0000000      -4.64849609E-06
   18.1200008      -4.70009070E-07
   18.2399998       3.74629440E-06
   18.3600006       7.89533260E-06
   18.4799995       1.18740945E-05
   18.6000004       1.55850339E-05
   18.7199993       1.89392031E-05
   18.8400002       2.18590176E-05
   18.9599991       2.42805836E-05
   19.0799999       2.61554942E-05
   19.2000008       2.74520517E-05
   19.3199997       2.81559242E-05
   19.4400005       2.82701840E-05
   19.5599995       2.78147963E-05
   19.6800003       2.68255808E-05
   19.7999992       2.53526541E-05
   19.9200001       2.34585059E-05
   20.0400009       2.12156810E-05
   20.1599998       1.87042078E-05
   20.2800007       1.60088730E-05
   20.3999996       1.32163595E-05
   20.5200005       1.04124238E-05
   20.6399994       7.67914480E-06
   20.7600002       5.09236452E-06
   20.8799992       2.71939052E-06
   21.0000000       6.17039063E-07
   21.1200008      -1.16991237E-06
   21.2399998      -2.60981437E-06
   21.3600006      -3.68474002E-06
   21.4799995      -4.39056430E-06
   21.6000004      -4.73653972E-06
   21.7199993      -4.74438184E-06
   21.8400002      -4.44691477E-06
   21.9599991      -3.88633816E-06
   22.0799999      -3.11219151E-06
   22.2000008      -2.17910792E-06
   22.3199997      -1.14444947E-06
   22.4400005      -6.59286812E-08
   22.5599995       1.00069042E-06
   22.6800003       2.00371983E-06
   22.7999992       2.89742457E-06
   22.9200001       3.64358561E-06
   23.0400009       4.21269760E-06
   23.1599998       4.58477143E-06
   23.2800007       4.74972785E-06
   23.3999996       4.70738496E-06
   23.5200005       4.46705553E-06
   23.6399994       4.04678849E-06
   23.7600002       3.47228820E-06
   23.8799992       2.77556592E-06
   24.0000000       1.99337751E-06
   24.1200008       1.16550507E-06
   24.2399998       3.32948218E-07
   24.3600006      -4.63913807E-07
   24.4799995      -1.18711955E-06
   24.6000004      -1.80281813E-06
   24.7199993      -2.28279214E-06
   24.8400002      -2.60574620E-06
   24.9599991      -2.75830394E-06
   25.0799999      -2.73566229E-06
   25.2000008      -2.54185966E-06
   25.3199997      -2.18963237E-06
   25.4400005      -1.69984469E-06
   25.5599995      -1.10050462E-06
   25.6800003      -4.25391477E-07
   25.7999992       2.87648106E-07
   25.9200001       9.98661449E-07
   26.0400009       1.66771213E-06
   26.1599998       2.25705185E-06
   26.2800007       2.73321848E-06
   26.3999996       3.06893776E-06
   26.5200005       3.24470875E-06
   26.6399994       3.24996995E-06
   26.7600002       3.08376025E-06
   26.8799992       2.75482807E-06
   27.0000000       2.28116528E-06
   27.1200008       1.68898612E-06
   27.2399998       1.01121168E-06
   27.3600006       2.85544530E-07
   27.4799995      -4.47743048E-07
   27.6000004      -1.14816999E-06
   27.7199993      -1.77740844E-06
   27.8400002      -2.30149726E-06
   27.9599991      -2.69276984E-06
   28.0799999      -2.93138351E-06
   28.2000008      -3.00635861E-06
   28.3199997      -2.91608035E-06
   28.4400005      -2.66824190E-06
   28.5599995      -2.27925102E-06
   28.6800003      -1.77315610E-06
   28.7999992      -1.18016771E-06
   28.9200001      -5.34881110E-07
   29.0400009       1.25686171E-07
   29.1599998       7.64125389E-07
   29.2800007       1.34461982E-06
   29.3999996       1.83477766E-06
   29.5200005       2.20722541E-06
   29.6399994       2.44089392E-06
   29.7600002       2.52194650E-06
   29.8799992       2.44432636E-06
   30.0000000       2.20991251E-06
   30.1200008       1.82829717E-06
   30.2399998       1.31620561E-06
   30.3600006       6.96602399E-07
   30.4799995      -2.47250487E-09
   30.6000004      -7.49281241E-07
   30.7199993      -1.50991707E-06
   30.8400002      -2.24991823E-06
   30.9599991      -2.93589892E-06
   31.0799999      -3.53712471E-06
   31.2000008      -4.02696242E-06
   31.3199997      -4.38413645E-06
   31.4400005      -4.59372950E-06
   31.5599995      -4.64787399E-06
   31.6800003      -4.54609608E-06
   31.7999992      -4.29528018E-06
   31.9200001      -3.90925516E-06
   32.0400009      -3.40801535E-06
   32.1599998      -2.81660868E-06
   32.2799988      -2.16375679E-06
   32.4000015      -1.48027573E-06
   32.5200005      -7.97393682E-07
   32.6399994      -1.45064490E-07
   32.7599983       4.49620188E-07
   32.8800011       9.63821662E-07
   33.0000000       1.38006089E-06
   33.1199989       1.68697238E-06
   33.2400017       1.87966157E-06
   33.3600006       1.95964685E-06
   33.4799995       1.93440087E-06
   33.5999985       1.81652820E-06
   33.7200012       1.62265007E-06
   33.8400002       1.37207780E-06
   33.9599991       1.08538143E-06
   34.0800018       7.82954771E-07
   34.2000008       4.83683777E-07
   34.3199997       2.03809719E-07
   34.4399986      -4.39383143E-08
   34.5600014      -2.50889997E-07
   34.6800003      -4.12636410E-07
   34.7999992      -5.28892826E-07
   34.9199982      -6.03052627E-07
   35.0400009      -6.41487532E-07
   35.1599998      -6.52665562E-07
   35.2799988      -6.46170918E-07
   35.4000015      -6.31712453E-07
   35.5200005      -6.18203558E-07
   35.6399994      -6.12985502E-07
   35.7599983      -6.21250365E-07
   35.8800011      -6.45698833E-07
   36.0000000      -6.86444878E-07
   36.1199989      -7.41158715E-07
   36.2400017      -8.05418495E-07
   36.3600006      -8.73225531E-07
   36.4799995      -9.37624293E-07
   36.5999985      -9.91367187E-07
   36.7200012      -1.02756053E-06
   36.8400002      -1.04023582E-06
   36.9599991      -1.02480112E-06
   37.0800018      -9.78342314E-07
   37.2000008      -8.99758220E-07
   37.3199997      -7.89733463E-07
   37.4399986      -6.50563777E-07
   37.5600014      -4.85866337E-07
   37.6800003      -3.00213458E-07
   37.7999992      -9.87328264E-08
   37.9199982       1.13281985E-07
   38.0400009       3.30711259E-07
   38.1599998       5.48869139E-07
   38.2799988       7.63662911E-07
   38.4000015       9.71644567E-07
   38.5200005       1.16995818E-06
   38.6399994       1.35619985E-06
   38.7599983       1.52821406E-06
   38.8800011       1.68385679E-06
   39.0000000       1.82076167E-06
   39.1199989       1.93614051E-06
   39.2400017       2.02664955E-06
   39.3600006       2.08834376E-06
   39.4799995       2.11673978E-06
   39.5999985       2.10698568E-06
   39.7200012       2.05414312E-06
   39.8400002       1.95356029E-06
   39.9599991       1.80131576E-06
   40.0800018       1.59470369E-06
   40.2000008       1.33271931E-06
   40.3199997       1.01650653E-06
   40.4399986       6.49724768E-07
   40.5600014       2.38793405E-07
   40.6800003      -2.07018203E-07
   40.7999992      -6.75685158E-07
   40.9199982      -1.15271939E-06
   41.0400009      -1.62166293E-06
   41.1599998      -2.06476716E-06
   41.2799988      -2.46383183E-06
   41.4000015      -2.80115546E-06
   41.5200005      -3.06054199E-06
   41.6399994      -3.22829897E-06
   41.7599983      -3.29415252E-06
   41.8800011      -3.25201290E-06
   42.0000000      -3.10052837E-06
   42.1199989      -2.84337375E-06
   42.2400017      -2.48924516E-06
   42.3600006      -2.05154379E-06
   42.4799995      -1.54776274E-06
   42.5999985      -9.98604719E-07
   42.7200012      -4.26883929E-07
   42.8400002       1.43717600E-07
   42.9599991       6.89957574E-07
   43.0800018       1.19031665E-06
   43.2000008       1.62617005E-06
   43.3199997       1.98276302E-06
   43.4399986       2.24992641E-06
   43.5600014       2.42248120E-06
   43.6800003       2.50030871E-06
   43.7999992       2.48808487E-06
   43.9199982       2.39470592E-06
   44.0400009       2.23245547E-06
   44.1599998       2.01598459E-06
   44.2799988       1.76118624E-06
   44.4000015       1.48405672E-06
   44.5200005       1.19963568E-06
   44.6399994       9.21103037E-07
   44.7599983       6.59100010E-07
   44.8800011       4.21316201E-07
   45.0000000       2.12359126E-07
   45.1199989       3.38956418E-08
   45.2400017      -1.14969339E-07
   45.3600006      -2.37133833E-07
   45.4799995      -3.36828691E-07
   45.5999985      -4.18912293E-07
   45.7200012      -4.88203796E-07
   45.8400002      -5.48917740E-07
   45.9599991      -6.04247646E-07
   46.0800018      -6.56125849E-07
   46.2000008      -7.05164837E-07
   46.3199997      -7.50765082E-07
   46.4399986      -7.91357365E-07
   46.5600014      -8.24734002E-07
   46.6800003      -8.48418040E-07
   46.7999992      -8.60021657E-07
   46.9199982      -8.57547548E-07
   47.0400009      -8.39604581E-07
   47.1599998      -8.05519505E-07
   47.2799988      -7.55344161E-07
   47.4000015      -6.89773856E-07
   47.5200005      -6.10003951E-07
   47.6399994      -5.17556941E-07
   47.7599983      -4.14117039E-07
   47.8800011      -3.01402252E-07
   48.0000000      -1.81097491E-07
   48.1199989      -5.48584929E-08
   48.2400017       7.56151195E-08
   48.3600006       2.08455035E-07
   48.4799995       3.41472457E-07
   48.5999985       4.72012431E-07
   48.7200012       5.96846519E-07
   48.8400002       7.12136398E-07
   48.9599991       8.13487190E-07
   49.0800018       8.96102165E-07
   49.2000008       9.55034807E-07
   49.3199997       9.85521524E-07
   49.4399986       9.83367386E-07
   49.5600014       9.45346642E-07
   49.6800003       8.69580845E-07
   49.7999992       7.55852511E-07
   49.9199982       6.05822493E-07
   50.0400009       4.23125670E-07
   50.1599998       2.13331262E-07
   50.2799988      -1.62330114E-08
   50.4000015      -2.56783210E-07
   50.5200005      -4.98487907E-07
   50.6399994      -7.30954753E-07
   50.7599983      -9.43764121E-07
   50.8800011      -1.12701548E-06
   51.0000000      -1.27185399E-06
   51.1199989      -1.37094798E-06
   51.2400017      -1.41889075E-06
   51.3600006      -1.41250928E-06
   51.4799995      -1.35106109E-06
   51.5999985      -1.23631401E-06
   51.7200012      -1.07250116E-06
   51.8400002      -8.66152845E-07
   51.9599991      -6.25810401E-07
   52.0800018      -3.61630981E-07
   52.2000008      -8.48984669E-08
   52.3199997       1.92539588E-07
   52.4399986       4.58883335E-07
   52.5600014       7.03009391E-07
   52.6800003       9.15080193E-07
   52.7999992       1.08709457E-06
   52.9199982       1.21333733E-06
   53.0400009       1.29068951E-06
   53.1599998       1.31876584E-06
   53.2799988       1.29985597E-06
   53.4000015       1.23866312E-06
   53.5200005       1.14185127E-06
   53.6399994       1.01743183E-06
   53.7599983       8.74042087E-07
   53.8800011       7.20185142E-07
   54.0000000       5.63508877E-07
   54.1199989       4.10205502E-07
   54.2400017       2.64603102E-07
   54.3600006       1.29001165E-07
   54.4799995       3.77445009E-09
   54.5999985      -1.12266619E-07
   54.7200012      -2.21304447E-07
   54.8400002      -3.25810191E-07
   54.9599991      -4.27807976E-07
   55.0800018      -5.28219005E-07
   55.2000008      -6.26390033E-07
   55.3199997      -7.19892569E-07
   55.4399986      -8.04641502E-07
   55.5600014      -8.75340447E-07
   55.6800003      -9.26212806E-07
   55.7999992      -9.51932407E-07
   55.9199982      -9.48632874E-07
   56.0400009      -9.14852137E-07
   56.1599998      -8.52267988E-07
   56.2799988      -7.66095013E-07
   56.4000015      -6.65049640E-07
   56.5200005      -5.60839339E-07
   56.6399994      -4.67190944E-07
   56.7599983      -3.98493313E-07
   56.8800011      -3.68184232E-07
   57.0000000      -3.87053831E-07
   57.1199989      -4.61657578E-07
   57.2400017      -5.93035168E-07
   57.3600006      -7.75907495E-07
   57.4799995      -9.98480914E-07
   57.5999985      -1.24292751E-06
   57.7200012      -1.48654090E-06
   57.8400002      -1.70348824E-06
   57.9599991      -1.86701891E-06
   58.0800018      -1.95192729E-06
   58.2000008      -1.93703522E-06
   58.3199997      -1.80744496E-06
   58.4399986      -1.55632927E-06
   58.5600014      -1.18606499E-06
   58.6800003      -7.08571690E-07
   58.7999992      -1.44801859E-07
   58.9199982       4.76593982E-07
   59.0400009       1.12131806E-06
   59.1599998       1.75201001E-06
   59.2799988       2.33113428E-06
   59.4000015       2.82390420E-06
   59.5200005       3.20097593E-06
   59.6399994       3.44067871E-06
   59.7599983       3.53057999E-06
   59.8800011       3.46826573E-06
   60.0000000       3.26128611E-06
   60.1199989       2.92629375E-06
   60.2400017       2.48747847E-06
   60.3600006       1.97445911E-06
   60.4799995       1.41983264E-06
   60.5999985       8.56606562E-07
   60.7200012       3.15731825E-07
   60.8400002      -1.76059956E-07
   60.9599991      -5.97955079E-07
   61.0800018      -9.36176150E-07
   61.2000008      -1.18446235E-06
   61.3199997      -1.34390939E-06
   61.4399986      -1.42221893E-06
   61.5600014      -1.43245086E-06
   61.6800003      -1.39140730E-06
   61.7999992      -1.31779689E-06
   61.9199982      -1.23033897E-06
   62.0400009      -1.14596298E-06
   62.1599998      -1.07824360E-06
   62.2799988      -1.03619323E-06
   62.4000015      -1.02349759E-06
   62.5200005      -1.03825130E-06
   62.6399994      -1.07320352E-06
   62.7599983      -1.11649399E-06
   62.8800011      -1.15281296E-06
   63.0000000      -1.16489207E-06
   63.1199989      -1.13520218E-06
   63.2400017      -1.04772027E-06
   63.3600006      -8.89617468E-07
   63.4799995      -6.52727408E-07
   63.5999985      -3.34670830E-07
   63.7200012       6.04633854E-08
   63.8400002       5.21942525E-07
   63.9599991       1.03274340E-06
   64.0800018       1.57041347E-06
   64.1999969       2.10837925E-06
   64.3199997       2.61760624E-06
   64.4400024       3.06848415E-06
   64.5599976       3.43279680E-06
   64.6800003       3.68563087E-06
   64.8000031       3.80708138E-06
   64.9199982       3.78363120E-06
   65.0400009       3.60911349E-06
   65.1600037       3.28518922E-06
   65.2799988       2.82132100E-06
   65.4000015       2.23425809E-06
   65.5199966       1.54707925E-06
   65.6399994       7.87878548E-07
   65.7600021      -1.18102381E-08
   65.8799973      -8.18732076E-07
   66.0000000      -1.59965805E-06
   66.1200027      -2.32305115E-06
   66.2399979      -2.96055464E-06
   66.3600006      -3.48822482E-06
   66.4800034      -3.88746457E-06
   66.5999985      -4.14561646E-06
   66.7200012      -4.25622875E-06
   66.8399963      -4.21899767E-06
   66.9599991      -4.03943523E-06
   67.0800018      -3.72830232E-06
   67.1999969      -3.30087028E-06
   67.3199997      -2.77606478E-06
   67.4400024      -2.17554293E-06
   67.5599976      -1.52275857E-06
   67.6800003      -8.42039469E-07
   67.8000031      -1.57711696E-07
   67.9199982       5.06718095E-07
   68.0400009       1.12931059E-06
   68.1600037       1.69036753E-06
   68.2799988       2.17302022E-06
   68.4000015       2.56372800E-06
   68.5199966       2.85267220E-06
   68.6399994       3.03403090E-06
   68.7600021       3.10611995E-06
   68.8799973       3.07138407E-06
   69.0000000       2.93623225E-06
   69.1200027       2.71070803E-06
   69.2399979       2.40800637E-06
   69.3600006       2.04384310E-06
   69.4800034       1.63570530E-06
   69.5999985       1.20201491E-06
   69.7200012       7.61245587E-07
   69.8399963       3.31041377E-07
   69.9599991      -7.26114848E-08
   70.0800018      -4.36105893E-07
   70.1999969      -7.48781645E-07
   70.3199997      -1.00329987E-06
   70.4400024      -1.19579499E-06
   70.5599976      -1.32579453E-06
   70.6800003      -1.39590929E-06
   70.8000031      -1.41132170E-06
   70.9199982      -1.37910831E-06
   71.0400009      -1.30745423E-06
   71.1600037      -1.20482525E-06
   71.2799988      -1.07916833E-06
   71.4000015      -9.37214679E-07
   71.5199966      -7.83952999E-07
   71.6399994      -6.22325331E-07
   71.7600021      -4.53185663E-07
   71.8799973      -2.75531846E-07
   72.0000000      -8.69997123E-08
   72.1200027       1.15421813E-07
   72.2399979       3.34520223E-07
   72.3600006       5.71919657E-07
   72.4800034       8.27172585E-07
   72.5999985       1.09698726E-06
   72.7200012       1.37469158E-06