  -30.0000000       0.00000000    
  -29.8799992       0.00000000    
  -29.7600002       0.00000000    
  -29.6399994       0.00000000    
  -29.5200005       0.00000000    
  -29.3999996       0.00000000    
  -29.2800007      -7.14662217E-44
  -29.1599998       1.37607509E-42
  -29.0400009       2.08078809E-41
  -28.9200001       1.21831691E-40
  -28.7999992       3.96542242E-40
  -28.6800003       6.67168008E-40
  -28.5599995      -2.22995631E-40
  -28.4400005      -4.70844271E-39
  -28.3199997      -1.39889622E-38
  -28.2000008      -2.04917536E-38
  -28.0799999       1.23060069E-39
  -27.9599991       9.18060184E-38
  -27.8400002       2.77187531E-37
  -27.7199993       5.18707509E-37
  -27.6000004       6.90614455E-37
  -27.4799995       6.36990732E-37
  -27.3600006       2.53892547E-37
  -27.2399998      -6.56208161E-37
  -27.1200008      -3.06661645E-36
  -27.0000000      -9.75989269E-36
  -26.8799992      -2.52900607E-35
  -26.7600002      -5.21220394E-35
  -26.6399994      -8.06027982E-35
  -26.5200005      -7.48152908E-35
  -26.3999996       3.47567707E-35
  -26.2800007       3.31515810E-34
  -26.1599998       8.45612800E-34
  -26.0400009       1.43964125E-33
  -25.9200001       1.69332735E-33
  -25.7999992       8.90568296E-34
  -25.6800003      -1.75753211E-33
  -25.5599995      -6.56915908E-33
  -25.4400005      -1.26092487E-32
  -25.3199997      -1.70113325E-32
  -25.2000008      -1.49947676E-32
  -25.0799999      -1.21065623E-33
  -24.9599991       2.73094609E-32
  -24.8400002       6.71581963E-32
  -24.7199993       1.05172432E-31
  -24.6000004       1.18202904E-31
  -24.4799995       7.85014641E-32
  -24.3600006      -3.43827719E-32
  -24.2399998      -2.17408550E-31
  -24.1200008      -4.29514586E-31
  -24.0000000      -5.87406940E-31
  -23.8799992      -5.79896425E-31
  -23.7600002      -3.04154367E-31
  -23.6399994       2.81711735E-31
  -23.5200005       1.10584631E-30
  -23.3999996       1.95332366E-30
  -23.2800007       2.48418218E-30
  -23.1599998       2.31247556E-30
  -23.0400009       1.14022914E-30
  -22.9200001      -1.08416728E-30
  -22.7999992      -4.03435191E-30
  -22.6800003      -6.96082089E-30
  -22.5599995      -8.78164772E-30
  -22.4400005      -8.32842826E-30
  -22.3199997      -4.72136121E-30
  -22.2000008       2.20358265E-30
  -22.0799999       1.15359833E-29
  -21.9599991       2.11437406E-29
  -21.8400002       2.78691813E-29
  -21.7199993       2.81472735E-29
  -21.6000004       1.90267238E-29
  -21.4799995      -5.60856285E-31
  -21.3600006      -2.85903969E-29
  -21.2399998      -5.92268236E-29
  -21.1200008      -8.30867724E-29
  -21.0000000      -8.88676799E-29
  -20.8799992      -6.64449201E-29
  -20.7600002      -1.10520310E-29
  -20.6399994       7.24476887E-29
  -20.5200005       1.66745426E-28
  -20.3999996       2.42525641E-28
  -20.2800007       2.63634941E-28
  -20.1599998       1.97378617E-28
  -20.0400009       2.85454445E-29
  -19.9200001      -2.26403272E-28
  -19.7999992      -5.10398206E-28
  -19.6800003      -7.28142545E-28
  -19.5599995      -7.64456869E-28
  -19.4400005      -5.19301009E-28
  -19.3199997       4.59571091E-29
  -19.2000008       8.63494061E-28
  -19.0799999       1.73332482E-27
  -18.9599991       2.33645770E-27
  -18.8400002       2.30098323E-27
  -18.7199993       1.32160308E-27
  -18.6000004      -6.87346438E-28
  -18.4799995      -3.44819807E-27
  -18.3600006      -6.24609742E-27
  -18.2399998      -7.98861720E-27
  -18.1200008      -7.44250205E-27
  -18.0000000      -3.64442029E-27
  -17.8799992       3.58634541E-27
  -17.7600002       1.31807780E-26
  -17.6399994       2.26020251E-26
  -17.5200005       2.80850660E-26
  -17.3999996       2.54703295E-26
  -17.2800007       1.16069088E-26
  -17.1599998      -1.39290973E-26
  -17.0400009      -4.73011876E-26
  -16.9200001      -7.97392066E-26
  -16.7999992      -9.84055353E-26
  -16.6800003      -8.92299120E-26
  -16.5599995      -4.16093867E-26
  -16.4400005       4.58801348E-26
  -16.3199997       1.60405633E-25
  -16.2000008       2.72635456E-25
  -16.0799999       3.39546170E-25
  -15.9600000       3.13683045E-25
  -15.8400002       1.58570767E-25
  -15.7200003      -1.32440317E-25
  -15.6000004      -5.19169083E-25
  -15.4799995      -9.06564080E-25
  -15.3599997      -1.15287712E-24
  -15.2399998      -1.09883640E-24
  -15.1199999      -6.17240518E-25
  -15.0000000       3.25291034E-25
  -14.8800001       1.61100296E-24
  -14.7600002       2.94095333E-24
  -14.6400003       3.85601482E-24
  -14.5200005       3.82555217E-24
  -14.3999996       2.40393627E-24
  -14.2799997      -5.69153775E-25
  -14.1599998      -4.77559668E-24
  -14.0400000      -9.30507271E-24
  -13.9200001      -1.26983666E-23
  -13.8000002      -1.32058668E-23
  -13.6800003      -9.27027605E-24
  -13.5600004      -1.67647179E-25
  -13.4399996       1.33454423E-23
  -13.3199997       2.86030646E-23
  -13.1999998       4.10709418E-23
  -13.0799999       4.50601293E-23
  -12.9600000       3.51747903E-23
  -12.8400002       8.32823650E-24
  -12.7200003      -3.41114310E-23
  -12.6000004      -8.47295367E-23
  -12.4799995      -1.29830147E-22
  -12.3599997      -1.51258878E-22
  -12.2399998      -1.30594131E-22
  -12.1199999      -5.53466831E-23
  -12.0000000       7.40420112E-23
  -11.8800001       2.38428526E-22
  -11.7600002       3.97942487E-22
  -11.6400003       4.96084104E-22
  -11.5200005       4.71310236E-22
  -11.3999996       2.75554516E-22
  -11.2799997      -1.03457707E-22
  -11.1599998      -6.21910220E-22
  -11.0400000      -1.16932218E-21
  -10.9200001      -1.57556621E-21
  -10.8000002      -1.64093772E-21
  -10.6800003      -1.18945927E-21
  -10.5600004      -1.37957182E-22
  -10.4399996       1.43505698E-21
  -10.3199997       3.24358278E-21
  -10.1999998       4.79664993E-21
  -10.0799999       5.46946200E-21
  -9.96000004       4.64970662E-21
  -9.84000015       1.94373691E-21
  -9.72000027      -2.59890697E-21
  -9.60000038      -8.30805909E-21
  -9.47999954      -1.38407867E-20
  -9.35999966      -1.73255193E-20
  -9.23999977      -1.67400014E-20
  -9.11999989      -1.05008373E-20
  -9.00000000       1.83565797E-21
  -8.88000011       1.89402566E-20
  -8.76000023       3.73784049E-20
  -8.64000034       5.18137244E-20
  -8.52000046       5.59095900E-20
  -8.39999962       4.39351489E-20
  -8.27999973       1.28585905E-20
  -8.15999985      -3.55374660E-20
  -8.03999996      -9.31866652E-20
  -7.92000008      -1.45658622E-19
  -7.80000019      -1.74078816E-19
  -7.67999983      -1.59277827E-19
  -7.55999994      -8.77831531E-20
  -7.44000006       4.14833694E-20
  -7.32000017       2.11643155E-19
  -7.19999981       3.85686764E-19
  -7.07999992       5.09810178E-19
  -6.96000004       5.23522351E-19
  -6.84000015       3.76160720E-19
  -6.71999979       4.72566119E-20
  -6.59999990      -4.34115501E-19
  -6.48000002      -9.77611472E-19
  -6.36000013      -1.43450541E-18
  -6.23999977      -1.62051537E-18
  -6.11999989      -1.35982920E-18
  -6.00000000      -5.45405001E-19
  -5.88000011       7.96666954E-19
  -5.76000023       2.45750521E-18
  -5.63999987       4.03271766E-18
  -5.51999998       4.96683411E-18
  -5.40000010       4.66587024E-18
  -5.28000021       2.67231967E-18
  -5.15999985      -1.12528441E-18
  -5.03999996      -6.29923307E-18
  -4.92000008      -1.17743750E-17
  -4.80000019      -1.58770238E-17
  -4.67999983      -1.65966196E-17
  -4.55999994      -1.20745241E-17
  -4.44000006      -1.27046980E-18
  -4.32000017       1.53196993E-17
  -4.19999981       3.50941003E-17
  -4.07999992       5.31662927E-17
  -3.96000004       6.28129789E-17
  -3.83999991       5.66994193E-17
  -3.72000003       2.88689740E-17
  -3.59999990      -2.27512752E-17
  -3.48000002      -9.38420986E-17
  -3.35999990      -1.71926923E-16
  -3.24000001      -2.36214751E-16
  -3.11999989      -2.59838209E-16
  -3.00000000      -2.14935907E-16
  -2.88000011      -8.04141515E-17
  -2.75999999       1.48614472E-16
  -2.64000010       4.51640879E-16
  -2.51999998       7.76532754E-16
  -2.40000010       1.03936755E-15
  -2.27999997       1.13311981E-15
  -2.16000009       9.46794582E-16
  -2.03999996       3.94458585E-16
  -1.91999996      -5.49308331E-16
  -1.79999995      -1.81424695E-15
  -1.67999995      -3.20907961E-15
  -1.55999994      -4.41704812E-15
  -1.44000006      -5.02264195E-15
  -1.32000005      -4.57610312E-15
  -1.20000005      -2.69534248E-15
  -1.08000004       8.04807455E-16
 -0.959999979       5.77721786E-15
 -0.839999974       1.16324932E-14
 -0.720000029       1.72925656E-14
 -0.600000024       2.12459123E-14
 -0.479999989       2.17329427E-14
 -0.360000014       1.70700195E-14
 -0.239999995       6.09046971E-15
 -0.119999997      -1.13555829E-14
  -1.11022302E-15  -3.39377066E-14
  0.119999997      -5.85417538E-14
  0.239999995      -8.02610067E-14
  0.360000014      -9.28000623E-14
  0.479999989      -8.93593942E-14
  0.600000024      -6.39850518E-14
  0.720000029      -1.32561105E-14
  0.839999974       6.19408970E-14
  0.959999979       1.54913747E-13
   1.08000004       2.52377790E-13
   1.20000005       3.34817948E-13
   1.32000005       3.78343678E-13
   1.44000006       3.58180228E-13
   1.55999994       2.53638961E-13
   1.67999995       5.40368463E-14
   1.79999995      -2.35348958E-13
   1.91999996      -5.88530852E-13
   2.03999996      -9.56676361E-13
   2.16000009      -1.26993782E-12
   2.27999997      -1.44423210E-12
   2.40000010      -1.39327352E-12
   2.51999998      -1.04519236E-12
   2.64000010      -3.61932679E-13
   2.75999999       6.41530015E-13
   2.88000011       1.88202253E-12
   3.00000000       3.20137580E-12
   3.11999989       4.37203008E-12
   3.24000001       5.11793342E-12
   3.35999990       5.15155843E-12
   3.48000002       4.22501270E-12
   3.59999990       2.18990017E-12
   3.72000003      -9.42693081E-13
   3.83999991      -4.95334286E-12
   3.96000004      -9.38909974E-12
   4.07999992      -1.35738009E-11
   4.19999981      -1.66626470E-11
   4.32000017      -1.77442210E-11
   4.44000006      -1.59853710E-11
   4.55999994      -1.08053089E-11
   4.67999983      -2.05613781E-12
   4.80000019       9.82062175E-12
   4.92000008       2.36961371E-11
   5.03999996       3.77489567E-11
   5.15999985       4.95794204E-11
   5.28000021       5.64574429E-11
   5.40000010       5.56980781E-11
   5.51999998       4.51357632E-11
   5.63999987       2.36435420E-11
   5.76000023      -8.37830499E-12
   5.88000011      -4.86346588E-11
   6.00000000      -9.27829064E-11
   6.11999989      -1.34578237E-10
   6.23999977      -1.66372111E-10
   6.36000013      -1.79976145E-10
   6.48000002      -1.67847597E-10
   6.59999990      -1.24489918E-10
   6.71999979      -4.79010442E-11
   6.84000015       5.91469096E-11
   6.96000004       1.88240742E-10
   7.07999992       3.25111826E-10
   7.19999981       4.50272847E-10
   7.32000017       5.40622547E-10
   7.44000006       5.72018266E-10
   7.55999994       5.22671795E-10
   7.67999983       3.77066184E-10
   7.80000019       1.29947483E-10
   7.92000008      -2.10174239E-10
   8.03999996      -6.18637863E-10
   8.15999985      -1.05396913E-09
   8.27999973      -1.45945123E-09
   8.39999962      -1.76724191E-09
   8.52000046      -1.90507143E-09
   8.64000034      -1.80521076E-09
   8.76000023      -1.41502932E-09
   8.88000011      -7.08093473E-10
   9.00000000       3.05541870E-10
   9.11999989       1.57138458E-09
   9.23999977       2.98647373E-09
   9.35999966       4.40067671E-09
   9.47999954       5.62436586E-09
   9.60000038       6.44295195E-09
   9.72000027       6.63802302E-09
   9.84000015       6.01396977E-09
   9.96000004       4.42810366E-09
   10.0799999       1.82141879E-09
   10.1999998      -1.75349024E-09
   10.3199997      -6.11126705E-09
   10.4399996      -1.09233209E-08
   10.5600004      -1.57215982E-08
   10.6800003      -1.99192645E-08
   10.8000002      -2.28497044E-08
   10.9200001      -2.38234712E-08
   11.0400000      -2.22008776E-08
   11.1599998      -1.74757471E-08
   11.2799997      -9.36378886E-09
   11.3999996       2.11274087E-09
   11.5200005       1.65537291E-08
   11.6400003       3.31334427E-08
   11.7600002       5.05862090E-08
   11.8800001       6.72340406E-08
   12.0000000       8.10622964E-08
   12.1199999       8.98460470E-08
   12.2399998       9.13253970E-08
   12.3599997       8.34230534E-08
   12.4799995       6.44922338E-08
   12.6000004       3.35777806E-08
   12.7200003      -9.33110567E-09
   12.8400002      -6.30814512E-08
   12.9600000      -1.25197190E-07
   13.0799999      -1.91806322E-07
   13.1999998      -2.57678693E-07
   13.3199997      -3.16392828E-07
   13.4399996      -3.60644037E-07
   13.5600004      -3.82694822E-07
   13.6800003      -3.74959058E-07
   13.8000002      -3.30698128E-07
   13.9200001      -2.44795388E-07
   14.0400000      -1.14563697E-07
   14.1599998       5.94680571E-08
   14.2799997       2.72851224E-07
   14.3999996       5.16660009E-07
   14.5200005       7.77143271E-07
   14.6400003       1.03564093E-06
   14.7600002       1.26881025E-06
   14.8800001       1.44919056E-06
   15.0000000       1.54611519E-06
   15.1199999       1.52695975E-06
   15.2399998       1.35868720E-06
   15.3599997       1.00963166E-06
   15.4799995       4.51438495E-07
   15.6000004      -3.38937582E-07
   15.7200003      -1.37729035E-06
   15.8400002      -2.67039195E-06
   15.9600000      -4.21451523E-06
   16.0799999      -5.99435634E-06
   16.2000008      -7.98244673E-06
   16.3199997      -1.01391370E-05
   16.4400005      -1.24131811E-05
   16.5599995      -1.47429400E-05
   16.6800003      -1.70581752E-05
   16.7999992      -1.92823809E-05
   16.9200001      -2.13355561E-05
   17.0400009      -2.31372978E-05
   17.1599998      -2.46100863E-05
   17.2800007      -2.56825970E-05
   17.3999996      -2.62928697E-05
   17.5200005      -2.63912007E-05
   17.6399994      -2.59425997E-05
   17.7600002      -2.49286786E-05
   17.8799992      -2.33488900E-05
   18.0000000      -2.12210361E-05
   18.1200008      -1.85810459E-05
   18.2399998      -1.54819700E-05
   18.3600006      -1.19923116E-05
   18.4799995      -8.19371598E-06
   18.6000004      -4.17814772E-06
   18.7199993      -4.46889814E-08
   18.8400002       4.10391112E-06
   18.9599991       8.16477404E-06
   19.0799999       1.20383656E-05
   19.2000008       1.56317710E-05
   19.3199997       1.88616395E-05
   19.4400005       2.16566877E-05
   19.5599995       2.39596975E-05
   19.6800003       2.57289303E-05
   19.7999992       2.69389639E-05
   19.9200001       2.75809216E-05
   20.0400009       2.76621395E-05
   20.1599998       2.72053094E-05
   20.2800007       2.62471767E-05
   20.3999996       2.48368488E-05
   20.5200005       2.30338155E-05
   20.6399994       2.09057471E-05
   20.7600002       1.85261706E-05
   20.8799992       1.59721039E-05
   21.0000000       1.33216881E-05
   21.1200008       1.06519174E-05
   21.2399998       8.03649982E-06
   21.3600006       5.54389226E-06
   21.4799995       3.23555355E-06
   21.6000004       1.16443357E-06
   21.7199993      -6.26259748E-07
   21.8400002      -2.10401049E-06
   21.9599991      -3.24763755E-06
   22.0799999      -4.04761613E-06
   22.2000008      -4.50606512E-06
   22.3199997      -4.63639753E-06
   22.4400005      -4.46262675E-06
   22.5599995      -4.01834086E-06
   22.6800003      -3.34535480E-06
   22.7999992      -2.49207369E-06
   22.9200001      -1.51160884E-06
   23.0400009      -4.59696423E-07
   23.1599998       6.07508639E-07
   23.2800007       1.63568188E-06
   23.3999996       2.57453371E-06
   23.5200005       3.37987171E-06
   23.6399994       4.01542229E-06
   23.7600002       4.45432306E-06
   23.8799992       4.68019834E-06
   24.0000000       4.68775534E-06
   24.1200008       4.48285891E-06
   24.2399998       4.08206051E-06
   24.3600006       3.51159974E-06
   24.4799995       2.80591212E-06
   24.6000004       2.00572185E-06
   24.7199993       1.15581054E-06
   24.8400002       3.02581469E-07
   24.9599991      -5.08445908E-07
   25.0799999      -1.23507527E-06
   25.2000008      -1.84066664E-06
   25.3199997      -2.29603825E-06
   25.4400005      -2.58092928E-06
   25.5599995      -2.68494477E-06
   25.6800003      -2.60792694E-06
   25.7999992      -2.35974562E-06
   25.9200001      -1.95952202E-06
   26.0400009      -1.43434579E-06
   26.1599998      -8.17567184E-07
   26.2800007      -1.46777523E-07
   26.3999996       5.38398012E-07
   26.5200005       1.19856043E-06
   26.6399994       1.79671554E-06
   26.7600002       2.30024875E-06
   26.8799992       2.68258805E-06
   27.0000000       2.92447203E-06
   27.1200008       3.01476666E-06
   27.2399998       2.95080031E-06
   27.3600006       2.73822729E-06
   27.4799995       2.39043970E-06
   27.6000004       1.92758989E-06
   27.7199993       1.37529571E-06
   27.8400002       7.63115906E-07
   27.9599991       1.22889674E-07
   28.0799999      -5.12962288E-07
   28.2000008      -1.11308486E-06
   28.3199997      -1.64870437E-06
   28.4400005      -2.09494556E-06
   28.5599995      -2.43189811E-06
   28.6800003      -2.64540131E-06
   28.7999992      -2.72752686E-06
   28.9200001      -2.67675978E-06
   29.0400009      -2.49789173E-06
   29.1599998      -2.20164770E-06
   29.2800007      -1.80407687E-06
   29.3999996      -1.32575121E-06
   29.5200005      -7.90805018E-07
   29.6399994      -2.25862934E-07
   29.7600002       3.41105789E-07
   29.8799992       8.81966287E-07
   30.0000000       1.36959329E-06
   30.1200008       1.77900586E-06
   30.2399998       2.08842766E-06
   30.3600006       2.28023873E-06
   30.4799995       2.34178538E-06
   30.6000004       2.26601310E-06
   30.7199993       2.05189713E-06
   30.8400002       1.70463727E-06
   30.9599991       1.23559528E-06
   31.0799999       6.61963441E-07
   31.2000008       6.15662099E-09
   31.3199997      -7.05063371E-07
   31.4400005      -1.44170770E-06
   31.5599995      -2.17188585E-06
   31.6800003      -2.86328282E-06
   31.7999992      -3.48471940E-06
   31.9200001      -4.00771478E-06
   32.0400009      -4.40796612E-06
   32.1599998      -4.66665551E-06
   32.2799988      -4.77149752E-06
   32.4000015      -4.71745989E-06
   32.5200005      -4.50709285E-06
   32.6399994      -4.15043996E-06
   32.7599983      -3.66452332E-06
   32.8800011      -3.07241612E-06
   33.0000000      -2.40196709E-06
   33.1199989      -1.68423992E-06
   33.2400017      -9.51773131E-07
   33.3600006      -2.36768955E-07
   33.4799995       4.30670184E-07
   33.5999985       1.02414185E-06
   33.7200012       1.52227608E-06
   33.8400002       1.90971627E-06
   33.9599991       2.17768843E-06
   34.0800018       2.32413163E-06
   34.2000008       2.35339439E-06
   34.3199997       2.27553096E-06
   34.4399986       2.10526559E-06
   34.5600014       1.86071350E-06
   34.6800003       1.56195949E-06
   34.7999992       1.22961058E-06
   34.9199982       8.83427674E-07
   35.0400009       5.41136785E-07
   35.1599998       2.17496392E-07
   35.2799988      -7.63221522E-08
   35.4000015      -3.33017340E-07
   35.5200005      -5.49106062E-07
   35.6399994      -7.24569190E-07
   35.7599983      -8.62249237E-07
   35.8800011      -9.67072651E-07
   36.0000000      -1.04518051E-06
   36.1199989      -1.10305177E-06
   36.2400017      -1.14669956E-06
   36.3600006      -1.18100820E-06
   36.4799995      -1.20925927E-06
   36.5999985      -1.23287714E-06
   36.7200012      -1.25139854E-06
   36.8400002      -1.26265331E-06
   36.9599991      -1.26312284E-06
   37.0800018      -1.24843052E-06
   37.2000008      -1.21390985E-06
   37.3199997      -1.15519038E-06
   37.4399986      -1.06874973E-06
   37.5600014      -9.52380219E-07
   37.6800003      -8.05533546E-07
   37.7999992      -6.29518695E-07
   37.9199982      -4.27540385E-07
   38.0400009      -2.04581426E-07
   38.1599998       3.28576171E-08
   38.2799988       2.77137730E-07
   38.4000015       5.19947037E-07
   38.5200005       7.52817641E-07
   38.6399994       9.67654501E-07
   38.7599983       1.15723810E-06
   38.8800011       1.31566560E-06
   39.0000000       1.43869909E-06
   39.1199989       1.52399730E-06
   39.2400017       1.57121281E-06
   39.3600006       1.58194928E-06
   39.4799995       1.55957923E-06
   39.5999985       1.50893538E-06
   39.7200012       1.43589727E-06
   39.8400002       1.34690106E-06
   39.9599991       1.24840926E-06
   40.0800018       1.14637953E-06
   40.2000008       1.04577282E-06
   40.3199997       9.50141384E-07
   40.4399986       8.61330705E-07
   40.5600014       7.79323500E-07
   40.6800003       7.02242687E-07
   40.7999992       6.26520205E-07
   40.9199982       5.47223408E-07
   41.0400009       4.58521242E-07
   41.1599998       3.54256258E-07
   41.2799988       2.28582380E-07
   41.4000015       7.66188890E-08
   41.5200005      -1.04930592E-07
   41.6399994      -3.17246531E-07
   41.7599983      -5.58994827E-07
   41.8800011      -8.26099381E-07
   42.0000000      -1.11171209E-06
   42.1199989      -1.40639258E-06
   42.2400017      -1.69849227E-06
   42.3600006      -1.97472809E-06
   42.4799995      -2.22090489E-06
   42.5999985      -2.42275019E-06
   42.7200012      -2.56679641E-06
   42.8400002      -2.64126061E-06
   42.9599991      -2.63685683E-06
   43.0800018      -2.54748329E-06
   43.2000008      -2.37074300E-06
   43.3199997      -2.10825783E-06
   43.4399986      -1.76575259E-06
   43.5600014      -1.35290213E-06
   43.6800003      -8.82950587E-07
   43.7999992      -3.72121207E-07
   43.9199982       1.61147739E-07
   44.0400009       6.97097164E-07
   44.1599998       1.21561936E-06
   44.2799988       1.69725149E-06
   44.4000015       2.12413420E-06
   44.5200005       2.48087781E-06
   44.6399994       2.75528782E-06
   44.7599983       2.93890821E-06
   44.8800011       3.02735293E-06
   45.0000000       3.02040530E-06
   45.1199989       2.92188633E-06
   45.2400017       2.73930232E-06
   45.3600006       2.48329479E-06
   45.4799995       2.16693684E-06
   45.5999985       1.80491861E-06
   45.7200012       1.41268208E-06
   45.8400002       1.00556360E-06
   45.9599991       5.98001805E-07
   46.0800018       2.02863376E-07
   46.2000008      -1.69070645E-07
   46.3199997      -5.09429469E-07
   46.4399986      -8.12374196E-07
   46.5600014      -1.07452036E-06
   46.6800003      -1.29468185E-06
   46.7999992      -1.47346964E-06
   46.9199982      -1.61279331E-06
   47.0400009      -1.71531565E-06
   47.1599998      -1.78392008E-06
   47.2799988      -1.82123983E-06
   47.4000015      -1.82929762E-06
   47.5200005      -1.80928851E-06
   47.6399994      -1.76152230E-06
   47.7599983      -1.68552833E-06
   47.8800011      -1.58030650E-06
   48.0000000      -1.44469084E-06
   48.1199989      -1.27778458E-06
   48.2400017      -1.07941582E-06
   48.3600006      -8.50560184E-07
   48.4799995      -5.93685172E-07
   48.5999985      -3.12973441E-07
   48.7200012      -1.44010288E-08
   48.8400002       2.94344062E-07
   48.9599991       6.04098773E-07
   49.0800018       9.04600086E-07
   49.2000008       1.18496916E-06
   49.3199997       1.43426701E-06
   49.4399986       1.64207904E-06
   49.5600014       1.79908920E-06
   49.6800003       1.89760306E-06
   49.7999992       1.93199253E-06
   49.9199982       1.89903903E-06
   50.0400009       1.79815993E-06
   50.1599998       1.63151685E-06
   50.2799988       1.40400118E-06
   50.4000015       1.12310317E-06
   50.5200005       7.98672659E-07
   50.6399994       4.42575214E-07
   50.7599983       6.82563339E-08
   50.8800011      -3.09778784E-07
   51.0000000      -6.76554691E-07
   51.1199989      -1.01726823E-06
   51.2400017      -1.31795991E-06
   51.3600006      -1.56618773E-06
   51.4799995      -1.75166485E-06
   51.5999985      -1.86682553E-06
   51.7200012      -1.90727724E-06
   51.8400002      -1.87209866E-06
   51.9599991      -1.76395349E-06
   52.0800018      -1.58899491E-06
   52.2000008      -1.35655762E-06
   52.3199997      -1.07864378E-06
   52.4399986      -7.69232827E-07
   52.5600014      -4.43460124E-07
   52.6800003      -1.16721836E-07
   52.7999992       1.96226097E-07
   52.9199982       4.82107623E-07
   53.0400009       7.29839655E-07
   53.1599998       9.31066495E-07
   53.2799988       1.08047834E-06
   53.4000015       1.17589730E-06
   53.5200005       1.21813673E-06
   53.6399994       1.21065773E-06
   53.7599983       1.15906869E-06
   53.8800011       1.07052301E-06
   54.0000000       9.53077858E-07
   54.1199989       8.15078067E-07
   54.2400017       6.64618824E-07
   54.3600006       5.09129393E-07
   54.4799995       3.55102145E-07
   54.5999985       2.07970004E-07
   54.7200012       7.21187092E-08
   54.8400002      -4.89994960E-08
   54.9599991      -1.52693261E-07
   55.0800018      -2.36849829E-07
   55.2000008      -2.99790571E-07
   55.3199997      -3.40203172E-07
   55.4399986      -3.57174514E-07
   55.5600014      -3.50331220E-07
   55.6800003      -3.20072672E-07
   55.7999992      -2.67863612E-07
   55.9199982      -1.96537599E-07
   56.0400009      -1.10552499E-07
   56.1599998      -1.61379941E-08
   56.2799988       7.87184291E-08
   56.4000015       1.64485755E-07
   56.5200005       2.30522005E-07
   56.6399994       2.65717688E-07
   56.7599983       2.59316153E-07
   56.8800011       2.01851762E-07
   57.0000000       8.61286225E-08
   57.1199989      -9.18510921E-08
   57.2400017      -3.32103070E-07
   57.3600006      -6.30107706E-07
   57.4799995      -9.76560614E-07
   57.5999985      -1.35747496E-06
   57.7200012      -1.75465664E-06
   57.8400002      -2.14654233E-06
   57.9599991      -2.50935659E-06
   58.0800018      -2.81851862E-06
   58.2000008      -3.05020490E-06
   58.3199997      -3.18296065E-06
   58.4399986      -3.19923879E-06
   58.5600014      -3.08675385E-06
   58.6800003      -2.83954705E-06
   58.7999992      -2.45867386E-06
   58.9199982      -1.95245934E-06
   59.0400009      -1.33628828E-06
   59.1599998      -6.31939542E-07
   59.2799988       1.33495419E-07
   59.4000015       9.29039743E-07
   59.5200005       1.72150339E-06
   59.6399994       2.47728553E-06
   59.7599983       3.16417913E-06
   59.8800011       3.75305763E-06
   60.0000000       4.21932873E-06
   60.1199989       4.54406882E-06
   60.2400017       4.71478052E-06
   60.3600006       4.72574402E-06
   60.4799995       4.57797159E-06
   60.5999985       4.27880968E-06
   60.7200012       3.84124951E-06
   60.8400002       3.28302758E-06
   60.9599991       2.62560548E-06
   61.0800018       1.89310811E-06
   61.2000008       1.11129361E-06
   61.3199997       3.06607888E-07
   61.4399986      -4.94649782E-07
   61.5600014      -1.26703628E-06
   61.6800003      -1.98656062E-06
   61.7999992      -2.63118932E-06
   61.9199982      -3.18128946E-06
   62.0400009      -3.62003402E-06
   62.1599998      -3.93379696E-06
   62.2799988      -4.11254041E-06
   62.4000015      -4.15019213E-06
   62.5200005      -4.04499269E-06
   62.6399994      -3.79977450E-06
   62.7599983      -3.42213843E-06
   62.8800011      -2.92447839E-06
   63.0000000      -2.32381217E-06
   63.1199989      -1.64138783E-06
   63.2400017      -9.02049692E-07
   63.3600006      -1.33359478E-07
   63.4799995       6.35500498E-07
   63.5999985       1.37500149E-06
   63.7200012       2.05665515E-06
   63.8400002       2.65443191E-06
   63.9599991       3.14611930E-06
   64.0800018       3.51452081E-06
   64.1999969       3.74840192E-06
   64.3199997       3.84309897E-06
   64.4400024       3.80072834E-06
   64.5599976       3.62996207E-06
   64.6800003       3.34536867E-06
   64.8000031       2.96635380E-06
   64.9199982       2.51577580E-06
   65.0400009       2.01833723E-06
   65.1600037       1.49888945E-06
   65.2799988       9.80778509E-07
   65.4000015       4.84390853E-07
   65.5199966       2.60145150E-08
   65.6399994      -3.82879421E-07
   65.7600021      -7.35877052E-07
   65.8799973      -1.03137165E-06
   66.0000000      -1.27186377E-06
   66.1200027      -1.46289653E-06
   66.2399979      -1.61175490E-06
   66.3600006      -1.72608077E-06
   66.4800034      -1.81256644E-06
   66.5999985      -1.87588262E-06
   66.7200012      -1.91796403E-06
   66.8399963      -1.93774304E-06
   66.9599991      -1.93136179E-06
   67.0800018      -1.89283730E-06
   67.1999969      -1.81510416E-06
   67.3199997      -1.69130396E-06
   67.4400024      -1.51616621E-06
   67.5599976      -1.28730630E-06
   67.6800003      -1.00627301E-06
   67.8000031      -6.79202003E-07
   67.9199982      -3.16976156E-07
   68.0400009       6.51543814E-08
   68.1600037       4.48478829E-07
   68.2799988       8.12185192E-07
   68.4000015       1.13504598E-06
   68.5199966       1.39726569E-06
   68.6399994       1.58230239E-06
   68.7600021       1.67847440E-06
   68.8799973       1.68018084E-06
   69.0000000       1.58860030E-06
   69.1200027       1.41178668E-06
   69.2399979       1.16413628E-06
   69.3600006       8.65268248E-07
   69.4800034       5.38418305E-07
   69.5999985       2.08495194E-07
   69.7200012      -1.00015463E-07
   69.8399963      -3.65098543E-07
   69.9599991      -5.69015185E-07
   70.0800018      -6.99695704E-07
   70.1999969      -7.51594143E-07
   70.3199997      -7.25932921E-07
   70.4400024      -6.30330021E-07
   70.5599976      -4.77861647E-07
   70.6800003      -2.85669785E-07
   70.8000031      -7.32649781E-08
   70.9199982       1.39299672E-07
   71.0400009       3.33203531E-07
   71.1600037       4.92416063E-07
   71.2799988       6.04903676E-07
   71.4000015       6.63395610E-07
   71.5199966       6.65671223E-07
   71.6399994       6.14382202E-07
   71.7600021       5.16469413E-07
   71.8799973       3.82270969E-07
   72.0000000       2.24438637E-07
   72.1200027       5.67868952E-08
   72.2399979      -1.06810390E-07
   72.3600006      -2.53381529E-07
   72.4800034      -3.71612487E-07
   72.5999985      -4.52366038E-07
   72.7200012      -4.88967316E-07