  -30.0000000       0.00000000    
  -29.8799992       0.00000000    
  -29.7600002       0.00000000    
  -29.6399994       0.00000000    
  -29.5200005       0.00000000    
  -29.3999996       0.00000000    
  -29.2800007       0.00000000    
  -29.1599998       0.00000000    
  -29.0400009       0.00000000    
  -28.9200001       0.00000000    
  -28.7999992       0.00000000    
  -28.6800003       1.40129846E-45
  -28.5599995      -3.39534618E-42
  -28.4400005       1.89309817E-40
  -28.3199997       3.95365432E-39
  -28.2000008       3.48279869E-38
  -28.0799999       1.77197262E-37
  -27.9599991       4.99810921E-37
  -27.8400002       1.88510797E-38
  -27.7199993      -7.72241459E-36
  -27.6000004      -4.55002151E-35
  -27.4799995      -1.64162791E-34
  -27.3600006      -4.16680559E-34
  -27.2399998      -6.95182538E-34
  -27.1200008      -3.08795915E-34
  -27.0000000       2.60631654E-33
  -26.8799992       1.10361765E-32
  -26.7600002       2.64509269E-32
  -26.6399994       4.13139127E-32
  -26.5200005       2.78638123E-32
  -26.3999996      -6.56444652E-32
  -26.2800007      -2.85790042E-31
  -26.1599998      -5.83943370E-31
  -26.0400009      -6.77822439E-31
  -25.9200001       1.30115514E-32
  -25.7999992       2.08825236E-30
  -25.6800003       5.24792739E-30
  -25.5599995       6.81512354E-30
  -25.4400005       7.99066547E-31
  -25.3199997      -1.99955132E-29
  -25.2000008      -5.57564001E-29
  -25.0799999      -8.49075647E-29
  -24.9599991      -5.03156360E-29
  -24.8400002       1.33668987E-28
  -24.7199993       5.24509446E-28
  -24.6000004       1.02700946E-27
  -24.4799995       1.23225427E-27
  -24.3600006       3.43450076E-28
  -24.2399998      -2.58827670E-27
  -24.1200008      -7.88317485E-27
  -24.0000000      -1.38866205E-26
  -23.8799992      -1.55791015E-26
  -23.7600002      -4.45208636E-27
  -23.6399994       2.84343619E-26
  -23.5200005       8.46797439E-26
  -23.3999996       1.46815298E-25
  -23.2800007       1.67911755E-25
  -23.1599998       7.33442132E-26
  -23.0400009      -2.11527456E-25
  -22.9200001      -6.99218203E-25
  -22.7999992      -1.25338421E-24
  -22.6800003      -1.51874805E-24
  -22.5599995      -9.42261219E-25
  -22.4400005       1.02905110E-24
  -22.3199997       4.53202957E-24
  -22.2000008       8.73305467E-24
  -22.0799999       1.14007464E-23
  -21.9599991       9.04460267E-24
  -21.8400002      -1.91893492E-24
  -21.7199993      -2.27988706E-23
  -21.6000004      -4.95632188E-23
  -21.4799995      -7.05144209E-23
  -21.3600006      -6.69220556E-23
  -21.2399998      -1.87687191E-23
  -21.1200008       8.37808462E-23
  -21.0000000       2.25777317E-22
  -20.8799992       3.56385648E-22
  -20.7600002       3.90827517E-22
  -20.6399994       2.33976018E-22
  -20.5200005      -1.72715983E-22
  -20.3999996      -7.92031243E-22
  -20.2800007      -1.44525659E-21
  -20.1599998      -1.81445985E-21
  -20.0400009      -1.52150776E-21
  -19.9200001      -2.86795418E-22
  -19.7999992       1.87133013E-21
  -19.6800003       4.47828273E-21
  -19.5599995       6.58758522E-21
  -19.4400005       6.98360722E-21
  -19.3199997       4.60108270E-21
  -19.2000008      -9.48035517E-22
  -19.0799999      -8.94037486E-21
  -18.9599991      -1.74167369E-20
  -18.8400002      -2.34959619E-20
  -18.7199993      -2.40825881E-20
  -18.6000004      -1.67492216E-20
  -18.4799995      -5.08538312E-22
  -18.3600006       2.36985000E-20
  -18.2399998       5.27280401E-20
  -18.1200008       8.09099608E-20
  -18.0000000       9.95198314E-20
  -17.8799992       9.64352814E-20
  -17.7600002       5.71831702E-20
  -17.6399994      -3.08884492E-20
  -17.5200005      -1.70138541E-19
  -17.3999996      -3.40910082E-19
  -17.2800007      -4.91242817E-19
  -17.1599998      -5.36251627E-19
  -17.0400009      -3.76249409E-19
  -16.9200001       6.18115043E-20
  -16.7999992       7.65850443E-19
  -16.6800003       1.58415427E-18
  -16.5599995       2.20812928E-18
  -16.4400005       2.22636592E-18
  -16.3199997       1.26593065E-18
  -16.2000008      -8.01058507E-19
  -16.0799999      -3.65501706E-18
  -15.9600000      -6.43635066E-18
  -15.8400002      -7.86793354E-18
  -15.7200003      -6.64198652E-18
  -15.6000004      -2.01202192E-18
  -15.4799995       5.59967112E-18
  -15.3599997       1.42631928E-17
  -15.2399998       2.07503518E-17
  -15.1199999       2.14273097E-17
  -15.0000000       1.36956352E-17
  -14.8800001      -2.46624541E-18
  -14.7600002      -2.35289209E-17
  -14.6400003      -4.26571649E-17
  -14.5200005      -5.14966220E-17
  -14.3999996      -4.32269533E-17
  -14.2799997      -1.59343458E-17
  -14.1599998       2.50970519E-17
  -14.0400000       6.75237262E-17
  -13.9200001       9.51690882E-17
  -13.8000002       9.37906348E-17
  -13.6800003       5.75339453E-17
  -13.5600004      -6.60895389E-18
  -13.4399996      -7.88420319E-17
  -13.3199997      -1.32230419E-16
  -13.1999998      -1.42830798E-16
  -13.0799999      -1.00777154E-16
  -12.9600000      -1.74707626E-17
  -12.8400002       7.54027009E-17
  -12.7200003       1.36572363E-16
  -12.6000004       1.32956631E-16
  -12.4799995       5.78238820E-17
  -12.3599997      -5.93136476E-17
  -12.2399998      -1.58115376E-16
  -12.1199999      -1.69790295E-16
  -12.0000000      -5.04344626E-17
  -11.8800001       1.87616633E-16
  -11.7600002       4.62153405E-16
  -11.6400003       6.37118542E-16
  -11.5200005       5.69849303E-16
  -11.3999996       1.77108528E-16
  -11.2799997      -5.04670436E-16
  -11.1599998      -1.29383923E-15
  -11.0400000      -1.89417340E-15
  -10.9200001      -1.98431592E-15
  -10.8000002      -1.34387717E-15
  -10.6800003       2.72388276E-17
  -10.5600004       1.84740702E-15
  -10.4399996       3.58867912E-15
  -10.3199997       4.61670946E-15
  -10.1999998       4.40200227E-15
  -10.0799999       2.73403071E-15
  -9.96000004      -1.43926780E-16
  -9.84000015      -3.54399326E-15
  -9.72000027      -6.50516052E-15
  -9.60000038      -8.08432216E-15
  -9.47999954      -7.67206021E-15
  -9.35999966      -5.21797198E-15
  -9.23999977      -1.27427944E-15
  -9.11999989       3.16984145E-15
  -9.00000000       7.00973720E-15
  -8.88000011       9.38326836E-15
  -8.76000023       9.92515345E-15
  -8.64000034       8.81511677E-15
  -8.52000046       6.60224913E-15
  -8.39999962       3.88714558E-15
  -8.27999973       1.01327608E-15
  -8.15999985      -2.07500626E-15
  -8.03999996      -5.71802254E-15
  -7.92000008      -1.01982021E-14
  -7.80000019      -1.53174338E-14
  -7.67999983      -2.01084368E-14
  -7.55999994      -2.28693221E-14
  -7.44000006      -2.15938836E-14
  -7.32000017      -1.47026725E-14
  -7.19999981      -1.82915325E-15
  -7.07999992       1.56509869E-14
  -6.96000004       3.46029866E-14
  -6.84000015       5.07171108E-14
  -6.71999979       5.95629774E-14
  -6.59999990       5.77983841E-14
  -6.48000002       4.41424580E-14
  -6.36000013       1.97954192E-14
  -6.23999977      -1.18172980E-14
  -6.11999989      -4.58550061E-14
  -6.00000000      -7.71099086E-14
  -5.88000011      -1.00914231E-13
  -5.76000023      -1.13624591E-13
  -5.63999987      -1.12624164E-13
  -5.51999998      -9.60401124E-14
  -5.40000010      -6.25520415E-14
  -5.28000021      -1.16758011E-14
  -5.15999985       5.52850883E-14
  -5.03999996       1.33775640E-13
  -4.92000008       2.14553744E-13
  -4.80000019       2.83090635E-13
  -4.67999983       3.20623058E-13
  -4.55999994       3.07340172E-13
  -4.44000006       2.27546741E-13
  -4.32000017       7.58409991E-14
  -4.19999981      -1.37371126E-13
  -4.07999992      -3.83051257E-13
  -3.96000004      -6.15171651E-13
  -3.83999991      -7.77686238E-13
  -3.72000003      -8.16241768E-13
  -3.59999990      -6.92424525E-13
  -3.48000002      -3.97059393E-13
  -3.35999990       4.13750387E-14
  -3.24000001       5.56452399E-13
  -3.11999989       1.05305922E-12
  -3.00000000       1.42512705E-12
  -2.88000011       1.57824567E-12
  -2.75999999       1.45187204E-12
  -2.64000010       1.03556541E-12
  -2.51999998       3.75010190E-13
  -2.40000010      -4.33824228E-13
  -2.27999997      -1.26098199E-12
  -2.16000009      -1.96531680E-12
  -2.03999996      -2.41857641E-12
  -1.91999996      -2.52594820E-12
  -1.79999995      -2.23996841E-12
  -1.67999995      -1.56699870E-12
  -1.55999994      -5.67355299E-13
  -1.44000006       6.49081646E-13
  -1.32000005       1.93057050E-12
  -1.20000005       3.09479265E-12
  -1.08000004       3.94537528E-12
 -0.959999979       4.29552661E-12
 -0.839999974       3.99908709E-12
 -0.720000029       2.98604414E-12
 -0.600000024       1.29569142E-12
 -0.479999989      -9.02336311E-13
 -0.360000014      -3.30925673E-12
 -0.239999995      -5.52748689E-12
 -0.119999997      -7.12054461E-12
  -1.11022302E-15  -7.69454986E-12
  0.119999997      -6.98567549E-12
  0.239999995      -4.93344428E-12
  0.360000014      -1.72056542E-12
  0.479999989       2.23366941E-12
  0.600000024       6.32884760E-12
  0.720000029       9.87837503E-12
  0.839999974       1.22249233E-11
  0.959999979       1.28529513E-11
   1.08000004       1.14768212E-11
   1.20000005       8.09046840E-12
   1.32000005       2.97484021E-12
   1.44000006      -3.33141934E-12
   1.55999994      -1.00871759E-11
   1.67999995      -1.64191369E-11
   1.79999995      -2.14010233E-11
   1.91999996      -2.41411145E-11
   2.03999996      -2.38812234E-11
   2.16000009      -2.01084271E-11
   2.27999997      -1.26732600E-11
   2.40000010      -1.89713544E-12
   2.51999998       1.13582008E-11
   2.64000010       2.56899623E-11
   2.75999999       3.92467343E-11
   2.88000011       4.99215634E-11
   3.00000000       5.56296779E-11
   3.11999989       5.46308727E-11
   3.24000001       4.58400262E-11
   3.35999990       2.90658955E-11
   3.48000002       5.13036055E-12
   3.59999990      -2.41551015E-11
   3.72000003      -5.61484644E-11
   3.83999991      -8.76368561E-11
   3.96000004      -1.15144630E-10
   4.07999992      -1.35234518E-10
   4.19999981      -1.44757414E-10
   4.32000017      -1.41025733E-10
   4.44000006      -1.21906374E-10
   4.55999994      -8.58458582E-11
   4.67999983      -3.18464248E-11
   4.80000019       4.05895144E-11
   4.92000008       1.31537004E-10
   5.03999996       2.40745840E-10
   5.15999985       3.67757463E-10
   5.28000021       5.12036802E-10
   5.40000010       6.73103850E-10
   5.51999998       8.50640225E-10
   5.63999987       1.04454068E-09
   5.76000023       1.25488653E-09
   5.88000011       1.48183621E-09
   6.00000000       1.72545600E-09
   6.11999989       1.98553884E-09
   6.23999977       2.26147567E-09
   6.36000013       2.55224530E-09
   6.48000002       2.85655943E-09
   6.59999990       3.17316440E-09
   6.71999979       3.50124996E-09
   6.84000015       3.84087562E-09
   6.96000004       4.19330215E-09
   7.07999992       4.56113902E-09
   7.19999981       4.94823915E-09
   7.32000017       5.35936140E-09
   7.44000006       5.79965898E-09
   7.55999994       6.27412566E-09
   7.67999983       6.78712730E-09
   7.80000019       7.34214423E-09
   7.92000008       7.94177968E-09
   8.03999996       8.58802540E-09
   8.15999985       9.28270705E-09
   8.27999973       1.00279918E-08
   8.39999962       1.08268177E-08
   8.52000046       1.16831576E-08
   8.64000034       1.26020705E-08
   8.76000023       1.35895464E-08
   8.88000011       1.46522359E-08
   9.00000000       1.57971272E-08
   9.11999989       1.70312582E-08
   9.23999977       1.83615185E-08
   9.35999966       1.97945109E-08
   9.47999954       2.13364899E-08
   9.60000038       2.29933068E-08
   9.72000027       2.47703618E-08
   9.84000015       2.66725610E-08
   9.96000004       2.87043438E-08
   10.0799999       3.08698169E-08
   10.1999998       3.31730838E-08
   10.3199997       3.56187080E-08
   10.4399996       3.82123737E-08
   10.5600004       4.09615737E-08
   10.6800003       4.38762200E-08
   10.8000002       4.69691237E-08
   10.9200001       5.02561299E-08
   11.0400000       5.37559721E-08
   11.1599998       5.74898245E-08
   11.2799997       6.14806268E-08
   11.3999996       6.57522392E-08
   11.5200005       7.03286460E-08
   11.6400003       7.52331744E-08
   11.7600002       8.04879079E-08
   11.8800001       8.61133813E-08
   12.0000000       9.21284595E-08
   12.1199999       9.85505721E-08
   12.2399998       1.05396204E-07
   12.3599997       1.12681633E-07
   12.4799995       1.20423806E-07
   12.6000004       1.28641318E-07
   12.7200003       1.37355215E-07
   12.8400002       1.46589755E-07
   12.9600000       1.56372693E-07
   13.0799999       1.66735376E-07
   13.1999998       1.77712366E-07
   13.3199997       1.89340952E-07
   13.4399996       2.01660384E-07
   13.5600004       2.14711037E-07
   13.6800003       2.28533864E-07
   13.8000002       2.43169922E-07
   13.9200001       2.58660322E-07
   14.0400000       2.75046403E-07
   14.1599998       2.92370089E-07
   14.2799997       3.10674579E-07
   14.3999996       3.30004951E-07
   14.5200005       3.50408499E-07
   14.6400003       3.71935158E-07
   14.7600002       3.94637510E-07
   14.8800001       4.18570806E-07
   15.0000000       4.43792686E-07
   15.1199999       4.70363062E-07
   15.2399998       4.98344207E-07
   15.3599997       5.27800808E-07
   15.4799995       5.58800309E-07
   15.6000004       5.91412913E-07
   15.7200003       6.25711948E-07
   15.8400002       6.61773868E-07
   15.9600000       6.99677628E-07
   16.0799999       7.39504401E-07
   16.2000008       7.81336837E-07
   16.3199997       8.25258553E-07
   16.4400005       8.71354302E-07
   16.5599995       9.19709976E-07
   16.6800003       9.70413907E-07
   16.7999992       1.02355705E-06
   16.9200001       1.07923438E-06
   17.0400009       1.13754550E-06
   17.1599998       1.19859476E-06
   17.2800007       1.26249108E-06
   17.3999996       1.32934690E-06
   17.5200005       1.39927670E-06
   17.6399994       1.47239746E-06
   17.7600002       1.54882639E-06
   17.8799992       1.62868184E-06
   18.0000000       1.71208308E-06
   18.1200008       1.79915025E-06
   18.2399998       1.89000616E-06
   18.3600006       1.98477483E-06
   18.4799995       2.08358324E-06
   18.6000004       2.18656010E-06
   18.7199993       2.29383568E-06
   18.8400002       2.40554209E-06
   18.9599991       2.52181326E-06
   19.0799999       2.64278515E-06
   19.2000008       2.76859714E-06
   19.3199997       2.89939271E-06
   19.4400005       3.03532033E-06
   19.5599995       3.17653348E-06
   19.6800003       3.32318882E-06
   19.7999992       3.47544619E-06
   19.9200001       3.63346521E-06
   20.0400009       3.79740277E-06
   20.1599998       3.96741143E-06
   20.2800007       4.14363876E-06
   20.3999996       4.32622846E-06
   20.5200005       4.51532105E-06
   20.6399994       4.71105523E-06
   20.7600002       4.91357241E-06
   20.8799992       5.12301722E-06
   21.0000000       5.33953516E-06
   21.1200008       5.56327541E-06
   21.2399998       5.79438711E-06
   21.3600006       6.03301623E-06
   21.4799995       6.27930604E-06
   21.6000004       6.53339612E-06
   21.7199993       6.79542336E-06
   21.8400002       7.06552282E-06
   21.9599991       7.34382866E-06
   22.0799999       7.63047683E-06
   22.2000008       7.92560058E-06
   22.3199997       8.22933362E-06
   22.4400005       8.54180053E-06
   22.5599995       8.86312046E-06
   22.6800003       9.19340437E-06
   22.7999992       9.53274775E-06
   22.9200001       9.88123884E-06
   23.0400009       1.02389549E-05
   23.1599998       1.06059679E-05
   23.2800007       1.09823413E-05
   23.3999996       1.13681353E-05
   23.5200005       1.17634027E-05
   23.6399994       1.21681869E-05
   23.7600002       1.25825281E-05
   23.8799992       1.30064554E-05
   24.0000000       1.34399970E-05
   24.1200008       1.38831692E-05
   24.2399998       1.43359875E-05
   24.3600006       1.47984638E-05
   24.4799995       1.52705998E-05
   24.6000004       1.57523918E-05
   24.7199993       1.62438173E-05
   24.8400002       1.67448288E-05
   24.9599991       1.72553646E-05
   25.0799999       1.77753318E-05
   25.2000008       1.83046141E-05
   25.3199997       1.88430840E-05
   25.4400005       1.93906035E-05
   25.5599995       1.99470232E-05
   25.6800003       2.05121978E-05
   25.7999992       2.10859762E-05
   25.9200001       2.16682074E-05
   26.0400009       2.22587241E-05
   26.1599998       2.28573590E-05
   26.2800007       2.34639083E-05
   26.3999996       2.40781555E-05
   26.5200005       2.46998516E-05
   26.6399994       2.53287344E-05
   26.7600002       2.59645149E-05
   26.8799992       2.66068855E-05
   27.0000000       2.72555262E-05
   27.1200008       2.79101041E-05
   27.2399998       2.85702681E-05
   27.3600006       2.92356672E-05
   27.4799995       2.99059338E-05
   27.6000004       3.05806898E-05
   27.7199993       3.12595439E-05
   27.8400002       3.19420942E-05
   27.9599991       3.26279078E-05
   28.0799999       3.33165517E-05
   28.2000008       3.40075458E-05
   28.3199997       3.47004097E-05
   28.4400005       3.53946489E-05
   28.5599995       3.60897429E-05
   28.6800003       3.67851753E-05
   28.7999992       3.74804040E-05
   28.9200001       3.81749014E-05
   29.0400009       3.88681110E-05
   29.1599998       3.95594834E-05
   29.2800007       4.02484475E-05
   29.3999996       4.09344102E-05
   29.5200005       4.16167713E-05
   29.6399994       4.22949051E-05
   29.7600002       4.29681750E-05
   29.8799992       4.36359187E-05
   30.0000000       4.42974742E-05
   30.1200008       4.49521758E-05
   30.2399998       4.55993468E-05
   30.3600006       4.62383141E-05
   30.4799995       4.68684157E-05
   30.6000004       4.74889748E-05
   30.7199993       4.80993258E-05
   30.8400002       4.86987919E-05
   30.9599991       4.92866820E-05
   31.0799999       4.98623122E-05
   31.2000008       5.04249838E-05
   31.3199997       5.09739803E-05
   31.4400005       5.15086031E-05
   31.5599995       5.20281392E-05
   31.6800003       5.25318719E-05
   31.7999992       5.30191101E-05
   31.9200001       5.34891442E-05
   32.0400009       5.39412904E-05
   32.1599998       5.43748538E-05
   32.2799988       5.47891505E-05
   32.4000015       5.51835001E-05
   32.5200005       5.55572406E-05
   32.6399994       5.59097061E-05
   32.7599983       5.62402493E-05
   32.8800011       5.65482405E-05
   33.0000000       5.68330579E-05
   33.1199989       5.70940865E-05
   33.2400017       5.73307225E-05
   33.3600006       5.75423583E-05
   33.4799995       5.77284154E-05
   33.5999985       5.78883046E-05
   33.7200012       5.80214655E-05
   33.8400002       5.81273562E-05
   33.9599991       5.82054490E-05
   34.0800018       5.82552420E-05
   34.2000008       5.82762514E-05
   34.3199997       5.82680186E-05
   34.4399986       5.82300891E-05
   34.5600014       5.81620225E-05
   34.6800003       5.80633969E-05
   34.7999992       5.79337939E-05
   34.9199982       5.77728351E-05
   35.0400009       5.75801496E-05
   35.1599998       5.73554025E-05
   35.2799988       5.70982957E-05
   35.4000015       5.68085597E-05
   35.5200005       5.64859511E-05
   35.6399994       5.61302513E-05
   35.7599983       5.57412932E-05
   35.8800011       5.53189238E-05
   36.0000000       5.48630160E-05
   36.1199989       5.43734604E-05
   36.2400017       5.38501808E-05
   36.3600006       5.32930935E-05
   36.4799995       5.27021475E-05
   36.5999985       5.20772883E-05
   36.7200012       5.14184794E-05
   36.8400002       5.07256991E-05
   36.9599991       4.99989401E-05
   37.0800018       4.92382460E-05
   37.2000008       4.84436787E-05
   37.3199997       4.76153546E-05
   37.4399986       4.67534410E-05
   37.5600014       4.58581417E-05
   37.6800003       4.49297004E-05
   37.7999992       4.39683936E-05
   37.9199982       4.29745123E-05
   38.0400009       4.19483658E-05
   38.1599998       4.08902633E-05
   38.2799988       3.98005432E-05
   38.4000015       3.86795546E-05
   38.5200005       3.75276759E-05
   38.6399994       3.63453146E-05
   38.7599983       3.51329109E-05
   38.8800011       3.38909485E-05
   39.0000000       3.26199224E-05
   39.1199989       3.13203709E-05
   39.2400017       2.99928415E-05
   39.3600006       2.86379018E-05
   39.4799995       2.72561301E-05
   39.5999985       2.58481214E-05
   39.7200012       2.44144976E-05
   39.8400002       2.29558991E-05
   39.9599991       2.14729989E-05
   40.0800018       1.99664955E-05
   40.2000008       1.84371056E-05
   40.3199997       1.68855659E-05
   40.4399986       1.53126239E-05
   40.5600014       1.37190300E-05
   40.6800003       1.21055436E-05
   40.7999992       1.04729288E-05
   40.9199982       8.82196400E-06
   41.0400009       7.15343958E-06
   41.1599998       5.46816136E-06
   41.2799988       3.76695220E-06
   41.4000015       2.05064339E-06
   41.5200005       3.20076680E-07
   41.6399994      -1.42390229E-06
   41.7599983      -3.18044590E-06
   41.8800011      -4.94870437E-06
   42.0000000      -6.72782517E-06
   42.1199989      -8.51695768E-06
   42.2400017      -1.03152470E-05
   42.3600006      -1.21218436E-05
   42.4799995      -1.39359017E-05
   42.5999985      -1.57565810E-05
   42.7200012      -1.75830410E-05
   42.8400002      -1.94144432E-05
   42.9599991      -2.12499453E-05
   43.0800018      -2.30887017E-05
   43.2000008      -2.49298701E-05
   43.3199997      -2.67726173E-05
   43.4399986      -2.86161230E-05
   43.5600014      -3.04595960E-05
   43.6800003      -3.23022723E-05
   43.7999992      -3.41434134E-05
   43.9199982      -3.59823134E-05
   44.0400009      -3.78182849E-05
   44.1599998      -3.96506330E-05
   44.2799988      -4.14786773E-05
   44.4000015      -4.33017303E-05
   44.5200005      -4.51191190E-05
   44.6399994      -4.69301704E-05
   44.7599983      -4.87342513E-05
   44.8800011      -5.05307726E-05
   45.0000000      -5.23191848E-05
   45.1199989      -5.40990113E-05
   45.2400017      -5.58698375E-05
   45.3600006      -5.76313068E-05
   45.4799995      -5.93831064E-05
   45.5999985      -6.11249707E-05
   45.7200012      -6.28566413E-05
   45.8400002      -6.45778709E-05
   45.9599991      -6.62884195E-05
   46.0800018      -6.79880686E-05
   46.2000008      -6.96766147E-05
   46.3199997      -7.13538975E-05
   46.4399986      -7.30198008E-05
   46.5600014      -7.46742735E-05
   46.6800003      -7.63173521E-05
   46.7999992      -7.79491093E-05
   46.9199982      -7.95697051E-05
   47.0400009      -8.11793507E-05
   47.1599998      -8.27783224E-05
   47.2799988      -8.43669550E-05
   47.4000015      -8.59456195E-05
   47.5200005      -8.75147598E-05
   47.6399994      -8.90748561E-05
   47.7599983      -9.06264031E-05
   47.8800011      -9.21699902E-05
   48.0000000      -9.37062068E-05
   48.1199989      -9.52357223E-05
   48.2400017      -9.67592568E-05
   48.3600006      -9.82775746E-05
   48.4799995      -9.97915195E-05
   48.5999985      -1.01301972E-04
   48.7200012      -1.02809907E-04
   48.8400002      -1.04316328E-04
   48.9599991      -1.05822292E-04
   49.0800018      -1.07328931E-04
   49.2000008      -1.08837412E-04
   49.3199997      -1.10348978E-04
   49.4399986      -1.11864909E-04
   49.5600014      -1.13386574E-04
   49.6800003      -1.14915325E-04
   49.7999992      -1.16452618E-04
   49.9199982      -1.17999880E-04
   50.0400009      -1.19558594E-04
   50.1599998      -1.21130281E-04
   50.2799988      -1.22716519E-04
   50.4000015      -1.24318904E-04
   50.5200005      -1.25939114E-04
   50.6399994      -1.27578911E-04
   50.7599983      -1.29240056E-04
   50.8800011      -1.30924396E-04
   51.0000000      -1.32633781E-04
   51.1199989      -1.34370101E-04
   51.2400017      -1.36135262E-04
   51.3600006      -1.37931187E-04
   51.4799995      -1.39759752E-04
   51.5999985      -1.41622935E-04
   51.7200012      -1.43522673E-04
   51.8400002      -1.45460857E-04
   51.9599991      -1.47439467E-04
   52.0800018      -1.49460393E-04
   52.2000008      -1.51525615E-04
   52.3199997      -1.53637069E-04
   52.4399986      -1.55796690E-04
   52.5600014      -1.58006413E-04
   52.6800003      -1.60268202E-04
   52.7999992      -1.62584009E-04
   52.9199982      -1.64955753E-04
   53.0400009      -1.67385326E-04
   53.1599998      -1.69874649E-04
   53.2799988      -1.72425585E-04
   53.4000015      -1.75039982E-04
   53.5200005      -1.77719587E-04
   53.6399994      -1.80466159E-04
   53.7599983      -1.83281387E-04
   53.8800011      -1.86166857E-04
   54.0000000      -1.89124141E-04
   54.1199989      -1.92154766E-04
   54.2400017      -1.95260145E-04
   54.3600006      -1.98441689E-04
   54.4799995      -2.01700692E-04
   54.5999985      -2.05038436E-04
   54.7200012      -2.08456069E-04
   54.8400002      -2.11954713E-04
   54.9599991      -2.15535387E-04
   55.0800018      -2.19199021E-04
   55.2000008      -2.22946488E-04
   55.3199997      -2.26778531E-04
   55.4399986      -2.30695849E-04
   55.5600014      -2.34698949E-04
   55.6800003      -2.38788300E-04
   55.7999992      -2.42964190E-04
   55.9199982      -2.47226766E-04
   56.0400009      -2.51576101E-04
   56.1599998      -2.56012136E-04
   56.2799988      -2.60534725E-04
   56.4000015      -2.65143608E-04
   56.5200005      -2.69838434E-04
   56.6399994      -2.74618622E-04
   56.7599983      -2.79483618E-04
   56.8800011      -2.84432725E-04
   57.0000000      -2.89465010E-04
   57.1199989      -2.94579455E-04
   57.2400017      -2.99774925E-04
   57.3600006      -3.05050082E-04
   57.4799995      -3.10403469E-04
   57.5999985      -3.15833429E-04
   57.7200012      -3.21338186E-04
   57.8400002      -3.26915819E-04
   57.9599991      -3.32564232E-04
   58.0800018      -3.38281272E-04
   58.2000008      -3.44064552E-04
   58.3199997      -3.49911512E-04
   58.4399986      -3.55819560E-04
   58.5600014      -3.61785875E-04
   58.6800003      -3.67807486E-04
   58.7999992      -3.73881252E-04
   58.9199982      -3.80003970E-04
   59.0400009      -3.86172178E-04
   59.1599998      -3.92382382E-04
   59.2799988      -3.98630917E-04
   59.4000015      -4.04913939E-04
   59.5200005      -4.11227462E-04
   59.6399994      -4.17567324E-04
   59.7599983      -4.23929276E-04
   59.8800011      -4.30308894E-04
   60.0000000      -4.36701637E-04
   60.1199989      -4.43102879E-04
   60.2400017      -4.49507876E-04
   60.3600006      -4.55911679E-04
   60.4799995      -4.62309283E-04
   60.5999985      -4.68695478E-04
   60.7200012      -4.75064939E-04
   60.8400002      -4.81412222E-04
   60.9599991      -4.87731711E-04
   61.0800018      -4.94017790E-04
   61.2000008      -5.00264869E-04
   61.3199997      -5.06467128E-04
   61.4399986      -5.12618688E-04
   61.5600014      -5.18713729E-04
   61.6800003      -5.24746196E-04
   61.7999992      -5.30709804E-04
   61.9199982      -5.36598556E-04
   62.0400009      -5.42405993E-04
   62.1599998      -5.48125885E-04
   62.2799988      -5.53751714E-04
   62.4000015      -5.59277192E-04
   62.5200005      -5.64695685E-04
   62.6399994      -5.70000731E-04
   62.7599983      -5.75185812E-04
   62.8800011      -5.80244465E-04
   63.0000000      -5.85170172E-04
   63.1199989      -5.89956529E-04
   63.2400017      -5.94596902E-04
   63.3600006      -5.99084946E-04
   63.4799995      -6.03414082E-04
   63.5999985      -6.07577967E-04
   63.7200012      -6.11570082E-04
   63.8400002      -6.15383964E-04
   63.9599991      -6.19013386E-04
   64.0800018      -6.22451946E-04
   64.1999969      -6.25693414E-04
   64.3199997      -6.28731621E-04
   64.4400024      -6.31560513E-04
   64.5599976      -6.34174328E-04
   64.6800003      -6.36567129E-04
   64.8000031      -6.38733385E-04
   64.9199982      -6.40667451E-04
   65.0400009      -6.42364030E-04
   65.1600037      -6.43817708E-04
   65.2799988      -6.45023305E-04
   65.4000015      -6.45975873E-04
   65.5199966      -6.46670465E-04
   65.6399994      -6.47102366E-04
   65.7600021      -6.47267094E-04
   65.8799973      -6.47160399E-04
   66.0000000      -6.46778266E-04
   66.1200027      -6.46116678E-04
   66.2399979      -6.45172026E-04
   66.3600006      -6.43940934E-04
   66.4800034      -6.42420200E-04
   66.5999985      -6.40606740E-04
   66.7200012      -6.38497993E-04
   66.8399963      -6.36091398E-04
   66.9599991      -6.33384858E-04
   67.0800018      -6.30376511E-04
   67.1999969      -6.27064612E-04
   67.3199997      -6.23447937E-04
   67.4400024      -6.19525264E-04
   67.5599976      -6.15295954E-04
   67.6800003      -6.10759365E-04
   67.8000031      -6.05915498E-04
   67.9199982      -6.00764470E-04
   68.0400009      -5.95306687E-04
   68.1600037      -5.89543080E-04
   68.2799988      -5.83474815E-04
   68.4000015      -5.77103288E-04
   68.5199966      -5.70430246E-04
   68.6399994      -5.63457725E-04
   68.7600021      -5.56188053E-04
   68.8799973      -5.48624143E-04
   69.0000000      -5.40769193E-04
   69.1200027      -5.32626582E-04
   69.2399979      -5.24200324E-04
   69.3600006      -5.15494554E-04
   69.4800034      -5.06513810E-04
   69.5999985      -4.97262925E-04
   69.7200012      -4.87746962E-04
   69.8399963      -4.77971509E-04
   69.9599991      -4.67942387E-04
   70.0800018      -4.57665796E-04
   70.1999969      -4.47148312E-04
   70.3199997      -4.36396891E-04
   70.4400024      -4.25418693E-04
   70.5599976      -4.14221227E-04
   70.6800003      -4.02812235E-04
   70.8000031      -3.91199748E-04
   70.9199982      -3.79392062E-04
   71.0400009      -3.67397850E-04
   71.1600037      -3.55226104E-04
   71.2799988      -3.42886138E-04
   71.4000015      -3.30387556E-04
   71.5199966      -3.17740225E-04
   71.6399994      -3.04954126E-04
   71.7600021      -2.92039505E-04
   71.8799973      -2.79006636E-04
   72.0000000      -2.65866140E-04
   72.1200027      -2.52628786E-04
   72.2399979      -2.39305518E-04
   72.3600006      -2.25907599E-04
   72.4800034      -2.12446481E-04
   72.5999985      -1.98933732E-04
   72.7200012      -1.85381141E-04