  -30.0000000       0.00000000    
  -29.8799992       0.00000000    
  -29.7600002       0.00000000    
  -29.6399994       0.00000000    
  -29.5200005       0.00000000    
  -29.3999996       0.00000000    
  -29.2800007      -1.49238286E-42
  -29.1599998      -1.26929615E-41
  -29.0400009      -5.05742629E-41
  -28.9200001      -9.41588490E-41
  -28.7999992       9.22446753E-41
  -28.6800003       1.31105765E-39
  -28.5599995       5.17678889E-39
  -28.4400005       1.33623786E-38
  -28.3199997       2.44202181E-38
  -28.2000008       2.75276647E-38
  -28.0799999      -4.30270515E-39
  -27.9599991      -1.13838360E-37
  -27.8400002      -3.40824687E-37
  -27.7199993      -6.77060559E-37
  -27.6000004      -1.00096018E-36
  -27.4799995      -1.01568570E-36
  -27.3600006      -2.28828811E-37
  -27.2399998       1.98333444E-36
  -27.1200008       6.17746173E-36
  -27.0000000       1.24390290E-35
  -26.8799992       1.96836127E-35
  -26.7600002       2.46535805E-35
  -26.6399994       2.09115954E-35
  -26.5200005      -1.27588283E-36
  -26.3999996      -5.26385854E-35
  -26.2800007      -1.38605914E-34
  -26.1599998      -2.48755497E-34
  -26.0400009      -3.44828398E-34
  -25.9200001      -3.54231503E-34
  -25.7999992      -1.78883264E-34
  -25.6800003       2.71990842E-34
  -25.5599995       1.02422338E-33
  -25.4400005       1.96911357E-33
  -25.3199997       2.81036124E-33
  -25.2000008       3.06603732E-33
  -25.0799999       2.16065431E-33
  -24.9599991      -3.79275043E-34
  -24.8400002      -4.65124086E-33
  -24.7199993      -1.00957472E-32
  -24.6000004      -1.53193010E-32
  -24.4799995      -1.81473670E-32
  -24.3600006      -1.60080496E-32
  -24.2399998      -6.67323000E-33
  -24.1200008       1.07346614E-32
  -24.0000000       3.47027297E-32
  -23.8799992       6.06093939E-32
  -23.7600002       8.07337102E-32
  -23.6399994       8.53278889E-32
  -23.5200005       6.48711956E-32
  -23.3999996       1.32759774E-32
  -23.2800007      -6.85913414E-32
  -23.1599998      -1.70066397E-31
  -23.0400009      -2.69681585E-31
  -22.9200001      -3.37030241E-31
  -22.7999992      -3.38041189E-31
  -22.6800003      -2.43387633E-31
  -22.5599995      -3.87429038E-32
  -22.4400005       2.65373351E-31
  -22.3199997       6.27048277E-31
  -22.2000008       9.72632144E-31
  -22.0799999       1.20471347E-30
  -21.9599991       1.21896206E-30
  -21.8400002       9.28267482E-31
  -21.7199993       2.90387448E-31
  -21.6000004      -6.66480282E-31
  -21.4799995      -1.82671465E-30
  -21.3600006      -2.98514251E-30
  -21.2399998      -3.86454319E-30
  -21.1200008      -4.15492754E-30
  -21.0000000      -3.57305746E-30
  -20.8799992      -1.93627110E-30
  -20.7600002       7.60230800E-31
  -20.6399994       4.27813176E-30
  -20.5200005       8.10172072E-30
  -20.3999996       1.14542818E-29
  -20.2800007       1.33813793E-29
  -20.1599998       1.29081798E-29
  -20.0400009       9.26311516E-30
  -19.9200001       2.14036795E-30
  -19.7999992      -8.04791656E-30
  -19.6800003      -1.99974768E-29
  -19.5599995      -3.14927673E-29
  -19.4400005      -3.96121901E-29
  -19.3199997      -4.11967158E-29
  -19.2000008      -3.35654832E-29
  -19.0799999      -1.53852417E-29
  -18.9599991       1.24833889E-29
  -18.8400002       4.64090316E-29
  -18.7199993       7.99527247E-29
  -18.6000004       1.04594667E-28
  -18.4799995       1.11311023E-28
  -18.3600006       9.28672285E-29
  -18.2399998       4.64249054E-29
  -18.1200008      -2.41928744E-29
  -18.0000000      -1.07383233E-28
  -17.8799992      -1.84555680E-28
  -17.7600002      -2.33300918E-28
  -17.6399994      -2.32836312E-28
  -17.5200005      -1.70861969E-28
  -17.3999996      -5.01550104E-29
  -17.2800007       1.07369728E-28
  -17.1599998       2.61497279E-28
  -17.0400009       3.61132568E-28
  -16.9200001       3.58400877E-28
  -16.7999992       2.27171381E-28
  -16.6800003      -1.88890379E-29
  -16.5599995      -3.15683222E-28
  -16.4400005      -5.52839105E-28
  -16.3199997      -5.97819536E-28
  -16.2000008      -3.39899648E-28
  -16.0799999       2.53828250E-28
  -15.9600000       1.08672205E-27
  -15.8400002       1.90763515E-27
  -15.7200003       2.33571314E-27
  -15.6000004       1.94970189E-27
  -15.4799995       4.38649178E-28
  -15.3599997      -2.21443637E-27
  -15.2399998      -5.57105474E-27
  -15.1199999      -8.67143332E-27
  -15.0000000      -1.01377046E-26
  -14.8800001      -8.49100450E-27
  -14.7600002      -2.66867619E-27
  -14.6400003       7.35428367E-27
  -14.5200005       2.00214978E-26
  -14.3999996       3.19714386E-26
  -14.2799997       3.83758736E-26
  -14.1599998       3.39934863E-26
  -14.0400000       1.49031803E-26
  -13.9200001      -1.93854540E-26
  -13.8000002      -6.40325546E-26
  -13.6800003      -1.07977235E-25
  -13.5600004      -1.34874976E-25
  -13.4399996      -1.26418054E-25
  -13.3199997      -6.80007037E-26
  -13.1999998       4.41731693E-26
  -13.0799999       1.96397905E-25
  -12.9600000       3.53794600E-25
  -12.8400002       4.62438595E-25
  -12.7200003       4.59327821E-25
  -12.6000004       2.90420523E-25
  -12.4799995      -6.57841216E-26
  -12.3599997      -5.74816268E-25
  -12.2399998      -1.13129941E-24
  -12.1199999      -1.56181729E-24
  -12.0000000      -1.65304442E-24
  -11.8800001      -1.20728959E-24
  -11.7600002      -1.19058931E-25
  -11.6400003       1.54404001E-24
  -11.5200005       3.48202060E-24
  -11.3999996       5.15546871E-24
  -11.2799997       5.85759159E-24
  -11.1599998       4.87761375E-24
  -11.0400000       1.74225630E-24
  -10.9200001      -3.51057263E-24
  -10.8000002      -1.01037344E-23
  -10.6800003      -1.64365622E-23
  -10.5600004      -2.02388939E-23
  -10.4399996      -1.90213092E-23
  -10.3199997      -1.08069590E-23
  -10.1999998       4.96990653E-24
  -10.0799999       2.66206035E-23
  -9.96000004       4.97175578E-23
  -9.84000015       6.72907692E-23
  -9.72000027       7.09484206E-23
  -9.60000038       5.29718773E-23
  -9.47999954       9.14059126E-24
  -9.35999966      -5.83017245E-23
  -9.23999977      -1.38434121E-22
  -9.11999989      -2.11243773E-22
  -9.00000000      -2.49936934E-22
  -8.88000011      -2.26438673E-22
  -8.76000023      -1.19734305E-22
  -8.64000034       7.43397021E-23
  -8.52000046       3.34301102E-22
  -8.39999962       6.08400731E-22
  -8.27999973       8.17404897E-22
  -8.15999985       8.67084201E-22
  -8.03999996       6.70693631E-22
  -7.92000008       1.78788912E-22
  -7.80000019      -5.89608777E-22
  -7.67999983      -1.52336346E-21
  -7.55999994      -2.41331923E-21
  -7.44000006      -2.97321206E-21
  -7.32000017      -2.89216411E-21
  -7.19999981      -1.91609381E-21
  -7.07999992       5.41514957E-23
  -6.96000004       2.86981246E-21
  -6.84000015       6.07527648E-21
  -6.71999979       8.91345110E-21
  -6.59999990       1.04189440E-20
  -6.48000002       9.60659533E-21
  -6.36000013       5.73893103E-21
  -6.23999977      -1.37188460E-21
  -6.11999989      -1.10977063E-20
  -6.00000000      -2.18492117E-20
  -5.88000011      -3.11347584E-20
  -5.76000023      -3.58803808E-20
  -5.63999987      -3.30183326E-20
  -5.51999998      -2.02839033E-20
  -5.40000010       2.91301589E-21
  -5.28000021       3.47366291E-20
  -5.15999985       7.05192087E-20
  -5.03999996       1.02907827E-19
  -4.92000008       1.22697975E-19
  -4.80000019       1.20362960E-19
  -4.67999983       8.81304397E-20
  -4.55999994       2.22976518E-20
  -4.44000006      -7.46464716E-20
  -4.32000017      -1.92576280E-19
  -4.19999981      -3.13405396E-19
  -4.07999992      -4.12193741E-19
  -3.96000004      -4.59794082E-19
  -3.83999991      -4.26919753E-19
  -3.72000003      -2.89315311E-19
  -3.59999990      -3.35753742E-20
  -3.48000002       3.36908440E-19
  -3.35999990       7.96426813E-19
  -3.24000001       1.29249287E-18
  -3.11999989       1.74329638E-18
  -3.00000000       2.03834736E-18
  -2.88000011       2.04416492E-18
  -2.75999999       1.61743278E-18
  -2.64000010       6.28227287E-19
  -2.51999998      -1.00478208E-18
  -2.40000010      -3.26736818E-18
  -2.27999997      -5.99511391E-18
  -2.16000009      -8.82080176E-18
  -2.03999996      -1.11400698E-17
  -1.91999996      -1.21175011E-17
  -1.79999995      -1.07581994E-17
  -1.67999995      -6.06685570E-18
  -1.55999994       2.69545302E-18
  -1.44000006       1.56684816E-17
  -1.32000005       3.20075685E-17
  -1.20000005       4.95368459E-17
  -1.08000004       6.45576682E-17
 -0.959999979       7.19513196E-17
 -0.839999974       6.57116712E-17
 -0.720000029       3.99999927E-17
 -0.600000024      -9.27639382E-18
 -0.479999989      -8.24984680E-17
 -0.360000014      -1.74292037E-16
 -0.239999995      -2.71892732E-16
 -0.119999997      -3.54543190E-16
  -1.11022302E-15  -3.94588393E-16
  0.119999997      -3.60825474E-16
  0.239999995      -2.24362828E-16
  0.360000014       3.32634636E-17
  0.479999989       4.10641652E-16
  0.600000024       8.77377426E-16
  0.720000029       1.36766821E-15
  0.839999974       1.77929498E-15
  0.959999979       1.98067749E-15
   1.08000004       1.82789011E-15
   1.20000005       1.19203518E-15
   1.32000005      -4.85079515E-18
   1.44000006      -1.74987944E-15
   1.55999994      -3.90268779E-15
   1.67999995      -6.17165866E-15
   1.79999995      -8.11354395E-15
   1.91999996      -9.16613400E-15
   2.03999996      -8.72016692E-15
   2.16000009      -6.23060665E-15
   2.27999997      -1.35891052E-15
   2.40000010       5.87192250E-15
   2.51999998       1.49374176E-14
   2.64000010       2.47219356E-14
   2.75999999       3.35168904E-14
   2.88000011       3.91400135E-14
   3.00000000       3.91958465E-14
   3.11999989       3.14760086E-14
   3.24000001       1.44689914E-14
   3.35999990      -1.20832418E-14
   3.48000002      -4.66753677E-14
   3.59999990      -8.56914501E-14
   3.72000003      -1.23343271E-13
   3.83999991      -1.52002719E-13
   3.96000004      -1.62996231E-13
   4.07999992      -1.47864116E-13
   4.19999981      -1.00000141E-13
   4.32000017      -1.64901729E-14
   4.44000006       1.00124797E-13
   4.55999994       2.40506210E-13
   4.67999983       3.87967734E-13
   4.80000019       5.19058104E-13
   4.92000008       6.05513849E-13
   5.03999996       6.17645583E-13
   5.15999985       5.28987607E-13
   5.28000021       3.21772692E-13
   5.40000010      -7.46807774E-15
   5.51999998      -4.43092150E-13
   5.63999987      -9.47340080E-13
   5.76000023      -1.46012163E-12
   5.88000011      -1.90236715E-12
   6.00000000      -2.18332448E-12
   6.11999989      -2.21163886E-12
   6.23999977      -1.90938931E-12
   6.36000013      -1.22761198E-12
   6.48000002      -1.61235025E-13
   6.59999990       1.23899881E-12
   6.71999979       2.86014073E-12
   6.84000015       4.52836857E-12
   6.96000004       6.01953860E-12
   7.07999992       7.07935880E-12
   7.19999981       7.45222894E-12
   7.32000017       6.91633946E-12
   7.44000006       5.32122393E-12
   7.55999994       2.62293334E-12
   7.67999983      -1.08852033E-12
   7.80000019      -5.57460068E-12
   7.92000008      -1.04507080E-11
   8.03999996      -1.52080709E-11
   8.15999985      -1.92550715E-11
   8.27999973      -2.19753174E-11
   8.39999962      -2.27970733E-11
   8.52000046      -2.12663897E-11
   8.64000034      -1.71148928E-11
   8.76000023      -1.03129059E-11
   8.88000011      -1.09975007E-12
   9.00000000       1.00145257E-11
   9.11999989       2.22780544E-11
   9.23999977       3.47545083E-11
   9.35999966       4.64022883E-11
   9.47999954       5.61652357E-11
   9.60000038       6.30619931E-11
   9.72000027       6.62607330E-11
   9.84000015       6.51276671E-11
   9.96000004       5.92420002E-11
   10.0799999       4.83758207E-11
   10.1999998       3.24452652E-11
   10.3199997       1.14462372E-11
   10.4399996      -1.46048156E-11
   10.5600004      -4.57009881E-11
   10.6800003      -8.18209181E-11
   10.8000002      -1.22829899E-10
   10.9200001      -1.68293962E-10
   11.0400000      -2.17208140E-10
   11.1599998      -2.67657230E-10
   11.2799997      -3.16446175E-10
   11.3999996      -3.58755498E-10
   11.5200005      -3.87894300E-10
   11.6400003      -3.95231708E-10
   11.7600002      -3.70392772E-10
   11.8800001      -3.01795255E-10
   12.0000000      -1.77585543E-10
   12.1199999       1.29980497E-11
   12.2399998       2.77848466E-10
   12.3599997       6.19865992E-10
   12.4799995       1.03461095E-09
   12.6000004       1.50792012E-09
   12.7200003       2.01373629E-09
   12.8400002       2.51245624E-09
   12.9600000       2.95014191E-09
   13.0799999       3.25897065E-09
   13.1999998       3.35928840E-09
   13.3199997       3.16359583E-09
   13.4399996       2.58271271E-09
   13.5600004       1.53423096E-09
   13.6800003      -4.68147188E-11
   13.8000002      -2.19538698E-09
   13.9200001      -4.90260277E-09
   14.0400000      -8.10155854E-09
   14.1599998      -1.16541239E-08
   14.2799997      -1.53403334E-08
   14.3999996      -1.88522868E-08
   14.5200005      -2.17946532E-08
   14.6400003      -2.36938753E-08
   14.7600002      -2.40179823E-08
   14.8800001      -2.22084555E-08
   15.0000000      -1.77248207E-08
   15.1199999      -1.01016271E-08
   15.2399998       9.83962467E-10
   15.3599997       1.56371840E-08
   15.4799995       3.36683499E-08
   15.6000004       5.45198233E-08
   15.7200003       7.72054918E-08
   15.8400002       1.00271990E-07
   15.9600000       1.21791530E-07
   16.0799999       1.39395866E-07
   16.2000008       1.50359725E-07
   16.3199997       1.51739769E-07
   16.4400005       1.40571856E-07
   16.5599995       1.14124909E-07
   16.6800003       7.02049263E-08
   16.7999992       7.49657936E-09
   16.9200001      -7.40753663E-08
   17.0400009      -1.72988180E-07
   17.1599998      -2.85794385E-07
   17.2800007      -4.06856572E-07
   17.3999996      -5.28175633E-07
   17.5200005      -6.39342318E-07
   17.6399994      -7.27638508E-07
   17.7600002      -7.78308788E-07
   17.8799992      -7.75012154E-07
   18.0000000      -7.00455132E-07
   18.1200008      -5.37192761E-07
   18.2399998      -2.68572848E-07
   18.3600006       1.20216427E-07
   18.4799995       6.41044892E-07
   18.6000004       1.30174544E-06
   18.7199993       2.10509188E-06
   18.8400002       3.04792047E-06
   18.9599991       4.12046029E-06
   19.0799999       5.30593479E-06
   19.2000008       6.58048839E-06
   19.3199997       7.91346702E-06
   19.4400005       9.26807297E-06
   19.5599995       1.06023945E-05
   19.6800003       1.18707685E-05
   19.7999992       1.30254502E-05
   19.9200001       1.40185020E-05
   20.0400009       1.48038271E-05
   20.1599998       1.53392430E-05
   20.2800007       1.55884973E-05
   20.3999996       1.55231082E-05
   20.5200005       1.51239428E-05
   20.6399994       1.43824273E-05
   20.7600002       1.33013282E-05
   20.8799992       1.18950484E-05
   21.0000000       1.01894066E-05
   21.1200008       8.22092716E-06
   21.2399998       6.03562876E-06
   21.3600006       3.68740530E-06
   21.4799995       1.23605298E-06
   21.6000004      -1.25495353E-06
   21.7199993      -3.72082559E-06
   21.8400002      -6.09785957E-06
   21.9599991      -8.32574733E-06
   22.0799999      -1.03497077E-05
   22.2000008      -1.21223302E-05
   22.3199997      -1.36050639E-05
   22.4400005      -1.47693063E-05
   22.5599995      -1.55970520E-05
   22.6800003      -1.60810887E-05
   22.7999992      -1.62247834E-05
   22.9200001      -1.60414584E-05
   23.0400009      -1.55534472E-05
   23.1599998      -1.47908613E-05
   23.2800007      -1.37901634E-05
   23.3999996      -1.25926190E-05
   23.5200005      -1.12426915E-05
   23.6399994      -9.78644493E-06
   23.7600002      -8.27003805E-06
   23.8799992      -6.73832528E-06
   24.0000000      -5.23362223E-06
   24.1200008      -3.79465519E-06
   24.2399998      -2.45569731E-06
   24.3600006      -1.24590531E-06
   24.4799995      -1.88845306E-07
   24.6000004       6.97805376E-07
   24.7199993       1.40239251E-06
   24.8400002       1.91927347E-06
   24.9599991       2.24867358E-06
   25.0799999       2.39642713E-06
   25.2000008       2.37360723E-06
   25.3199997       2.19605681E-06
   25.4400005       1.88382285E-06
   25.5599995       1.46049524E-06
   25.6800003       9.52455082E-07
   25.7999992       3.88036142E-07
   25.9200001      -2.03392531E-07
   26.0400009      -7.92407548E-07
   26.1599998      -1.35055541E-06
   26.2800007      -1.85139027E-06
   26.3999996      -2.27149053E-06
   26.5200005      -2.59140938E-06
   26.6399994      -2.79651249E-06
   26.7600002      -2.87765783E-06
   26.8799992      -2.83166128E-06
   27.0000000      -2.66151824E-06
   27.1200008      -2.37634254E-06
   27.2399998      -1.99100555E-06
   27.3600006      -1.52547773E-06
   27.4799995      -1.00388684E-06
   27.6000004      -4.53330301E-07
   27.7199993       9.75031469E-08
   27.8400002       6.19834054E-07
   27.9599991       1.08633174E-06
   28.0799999       1.47260437E-06
   28.2000008       1.75855143E-06
   28.3199997       1.92949278E-06
   28.4400005       1.97700501E-06
   28.5599995       1.89940511E-06
   28.6800003       1.70185524E-06
   28.7999992       1.39607118E-06
   28.9200001       9.99655526E-07
   29.0400009       5.35094330E-07
   29.1599998       2.84766788E-08
   29.2800007      -4.91981496E-07
   29.3999996      -9.97520374E-07
   29.5200005      -1.46042896E-06
   29.6399994      -1.85555518E-06
   29.7600002      -2.16164153E-06
   29.8799992      -2.36241726E-06
   30.0000000      -2.44738794E-06
   30.1200008      -2.41228599E-06
   30.2399998      -2.25917029E-06
   30.3600006      -1.99618239E-06
   30.4799995      -1.63698689E-06
   30.6000004      -1.19994013E-06
   30.7199993      -7.07046581E-07
   30.8400002      -1.82765817E-07
   30.9599991       3.47257554E-07
   31.0799999       8.57475413E-07
   31.2000008       1.32366461E-06
   31.3199997       1.72404691E-06
   31.4400005       2.04025673E-06
   31.5599995       2.25811959E-06
   31.6800003       2.36822211E-06
   31.7999992       2.36625942E-06
   31.9200001       2.25315807E-06
   32.0400009       2.03497780E-06
   32.1599998       1.72260809E-06
   32.2799988       1.33126957E-06
   32.4000015       8.79846823E-07
   32.5200005       3.90071420E-07
   32.6399994      -1.14414227E-07
   32.7599983      -6.09081610E-07
   32.8800011      -1.06959499E-06
   33.0000000      -1.47290450E-06
   33.1199989      -1.79831000E-06
   33.2400017      -2.02845058E-06
   33.3600006      -2.15017167E-06
   33.4799995      -2.15522437E-06
   33.5999985      -2.04075263E-06
   33.7200012      -1.80953475E-06
   33.8400002      -1.46995228E-06
   33.9599991      -1.03567447E-06
   34.0800018      -5.25063740E-07
   34.2000008       3.96789446E-08
   34.3199997       6.33586239E-07
   34.4399986       1.23016252E-06
   34.5600014       1.80271763E-06
   34.6800003       2.32571892E-06
   34.7999992       2.77608160E-06
   34.9199982       3.13432315E-06
   35.0400009       3.38550399E-06
   35.1599998       3.51990752E-06
   35.2799988       3.53341829E-06
   35.4000015       3.42757767E-06
   35.5200005       3.20932872E-06
   35.6399994       2.89047102E-06
   35.7599983       2.48686842E-06
   35.8800011       2.01747343E-06
   36.0000000       1.50323490E-06
   36.1199989       9.65960794E-07
   36.2400017       4.27209301E-07
   36.3600006      -9.27266299E-08
   36.4799995      -5.75687523E-07
   36.5999985      -1.00632872E-06
   36.7200012      -1.37259156E-06
   36.8400002      -1.66595578E-06
   36.9599991      -1.88148044E-06
   37.0800018      -2.01765647E-06
   37.2000008      -2.07609764E-06
   37.3199997      -2.06111190E-06
   37.4399986      -1.97919121E-06
   37.5600014      -1.83846532E-06
   37.6800003      -1.64815208E-06
   37.7999992      -1.41804503E-06
   37.9199982      -1.15806040E-06
   38.0400009      -8.77862703E-07
   38.1599998      -5.86579915E-07
   38.2799988      -2.92608263E-07
   38.4000015      -3.50142404E-09
   38.5200005       2.74068015E-07
   38.6399994       5.34291303E-07
   38.7599983       7.72168960E-07
   38.8800011       9.83438667E-07
   39.0000000       1.16450337E-06
   39.1199989       1.31237516E-06
   39.2400017       1.42464569E-06
   39.3600006       1.49948949E-06
   39.4799995       1.53570306E-06
   39.5999985       1.53277153E-06
   39.7200012       1.49095763E-06
   39.8400002       1.41139742E-06
   39.9599991       1.29618866E-06
   40.0800018       1.14845238E-06
   40.2000008       9.72354542E-07
   40.3199997       7.73070497E-07
   40.4399986       5.56684938E-07
   40.5600014       3.30021663E-07
   40.6800003       1.00404719E-07
   40.7999992      -1.24640877E-07
   40.9199982      -3.37734093E-07
   41.0400009      -5.32008755E-07
   41.1599998      -7.01485817E-07
   41.2799988      -8.41420274E-07
   41.4000015      -9.48594788E-07
   41.5200005      -1.02153376E-06
   41.6399994      -1.06061543E-06
   41.7599983      -1.06806613E-06
   41.8800011      -1.04782634E-06
   42.0000000      -1.00529235E-06
   42.1199989      -9.46940759E-07
   42.2400017      -8.79861545E-07
   42.3600006      -8.11226073E-07
   42.4799995      -7.47730326E-07
   42.5999985      -6.95053814E-07
   42.7200012      -6.57378450E-07
   42.8400002      -6.37007929E-07
   42.9599991      -6.34122785E-07
   43.0800018      -6.46696435E-07
   43.2000008      -6.70587099E-07
   43.3199997      -6.99805241E-07
   43.4399986      -7.26942233E-07
   43.5600014      -7.43732414E-07
   43.6800003      -7.41708106E-07
   43.7999992      -7.12898100E-07
   43.9199982      -6.50516313E-07
   44.0400009      -5.49584286E-07
   44.1599998      -4.07438250E-07
   44.2799988      -2.24078448E-07
   44.4000015      -2.33142905E-09
   44.5200005       2.52188954E-07
   44.6399994       5.31320438E-07
   44.7599983       8.24772769E-07
   44.8800011       1.12069824E-06
   45.0000000       1.40636871E-06
   45.1199989       1.66890845E-06
   45.2400017       1.89602974E-06
   45.3600006       2.07672019E-06
   45.4799995       2.20183438E-06
   45.5999985       2.26455631E-06
   45.7200012       2.26071029E-06
   45.8400002       2.18890659E-06
   45.9599991       2.05052879E-06
   46.0800018       1.84957662E-06
   46.2000008       1.59238800E-06
   46.3199997       1.28727152E-06
   46.4399986       9.44080739E-07
   46.5600014       5.73762520E-07
   46.6800003       1.87907176E-07
   46.7999992      -2.01677096E-07
   46.9199982      -5.83350925E-07
   47.0400009      -9.45983857E-07
   47.1599998      -1.27924579E-06
   47.2799988      -1.57385443E-06
   47.4000015      -1.82178383E-06
   47.5200005      -2.01644207E-06
   47.6399994      -2.15282375E-06
   47.7599983      -2.22763924E-06
   47.8800011      -2.23941788E-06
   48.0000000      -2.18858509E-06
   48.1199989      -2.07749508E-06
   48.2400017      -1.91041818E-06
   48.3600006      -1.69346401E-06
   48.4799995      -1.43443060E-06
   48.5999985      -1.14257693E-06
   48.7200012      -8.28311499E-07
   48.8400002      -5.02805278E-07
   48.9599991      -1.77540343E-07
   49.0800018       1.36186927E-07
   49.2000008       4.27780265E-07
   49.3199997       6.87845102E-07
   49.4399986       9.08642392E-07
   49.5600014       1.08446125E-06
   49.6800003       1.21187952E-06
   49.7999992       1.28988847E-06
   49.9199982       1.31986724E-06
   50.0400009       1.30540536E-06
   50.1599998       1.25198130E-06
   50.2799988       1.16651938E-06
   50.4000015       1.05686104E-06
   50.5200005       9.31187628E-07
   50.6399994       7.97443420E-07
   50.7599983       6.62804837E-07
   50.8800011       5.33239529E-07
   51.0000000       4.13188133E-07
   51.1199989       3.05394622E-07
   51.2400017       2.10893475E-07
   51.3600006       1.29150166E-07
   51.4799995       5.83365534E-08
   51.5999985      -4.28846780E-09
   51.7200012      -6.19313525E-08
   51.8400002      -1.17792048E-07
   51.9599991      -1.74611429E-07
   52.0800018      -2.34278417E-07
   52.2000008      -2.97530164E-07
   52.3199997      -3.63771022E-07
   52.4399986      -4.31024603E-07
   52.5600014      -4.96023290E-07
   52.6800003      -5.54429334E-07
   52.7999992      -6.01171337E-07
   52.9199982      -6.30873501E-07
   53.0400009      -6.38346137E-07
   53.1599998      -6.19103616E-07
   53.2799988      -5.69871020E-07
   53.4000015      -4.89040588E-07
   53.5200005      -3.77039441E-07
   53.6399994      -2.36573129E-07
   53.7599983      -7.27147551E-08
   53.8800011       1.07182125E-07
   54.0000000       2.93758859E-07
   54.1199989       4.76113371E-07
   54.2400017       6.42432951E-07
   54.3600006       7.80765163E-07
   54.4799995       8.79882464E-07
   54.5999985       9.30178601E-07
   54.7200012       9.24529672E-07
   54.8400002       8.59046565E-07
   54.9599991       7.33644526E-07
   55.0800018       5.52370295E-07
   55.2000008       3.23434790E-07
   55.3199997       5.89253411E-08
   55.4399986      -2.25805337E-07
   55.5600014      -5.13048519E-07
   55.6800003      -7.83894336E-07
   55.7999992      -1.01955379E-06
   55.9199982      -1.20275058E-06
   56.0400009      -1.31907336E-06
   56.1599998      -1.35817470E-06
   56.2799988      -1.31471336E-06
   56.4000015      -1.18894945E-06
   56.5200005      -9.86931468E-07
   56.6399994      -7.20242440E-07
   56.7599983      -4.05311994E-07
   56.8800011      -6.23357366E-08
   57.0000000       2.86123310E-07
   57.1199989       6.16746831E-07
   57.2400017       9.07163781E-07
   57.3600006       1.13761041E-06
   57.4799995       1.29241596E-06
   57.5999985       1.36119547E-06
   57.7200012       1.33965523E-06
   57.8400002       1.22994334E-06
   57.9599991       1.04052003E-06
   58.0800018       7.85552913E-07
   58.2000008       4.83889039E-07
   58.3199997       1.57678471E-07
   58.4399986      -1.69241858E-07
   58.5600014      -4.73082224E-07
   58.6800003      -7.31820307E-07
   58.7999992      -9.26779421E-07
   58.9199982      -1.04394655E-06
   59.0400009      -1.07493474E-06
   59.1599998      -1.01752096E-06
   59.2799988      -8.75722037E-07
   59.4000015      -6.59408272E-07
   59.5200005      -3.83487986E-07
   59.6399994      -6.67291502E-08
   59.7599983       2.69687490E-07
   59.8800011       6.03770161E-07
   60.0000000       9.14346174E-07
   60.1199989       1.18259254E-06
   60.2400017       1.39334668E-06
   60.3600006       1.53609540E-06
   60.4799995       1.60556465E-06
   60.5999985       1.60186937E-06
   60.7200012       1.53021517E-06
   60.8400002       1.40018631E-06
   60.9599991       1.22468816E-06
   61.0800018       1.01864271E-06
   61.2000008       7.97559892E-07
   61.3199997       5.76114758E-07
   61.4399986       3.66863958E-07
   61.5600014       1.79216670E-07
   61.6800003       1.87544895E-08
   61.7999992      -1.13040926E-07
   61.9199982      -2.18631996E-07
   62.0400009      -3.03861526E-07
   62.1599998      -3.77040891E-07
   62.2799988      -4.47783009E-07
   62.4000015      -5.25697430E-07
   62.5200005      -6.19078378E-07
   62.6399994      -7.33718196E-07
   62.7599983      -8.71966904E-07
   62.8800011      -1.03213733E-06
   63.0000000      -1.20832215E-06
   63.1199989      -1.39065207E-06
   63.2400017      -1.56598264E-06
   63.3600006      -1.71895522E-06
   63.4799995      -1.83334498E-06
   63.5999985      -1.89357104E-06
   63.7200012      -1.88623733E-06
   63.8400002      -1.80155303E-06
   63.9599991      -1.63449988E-06
   64.0800018      -1.38562586E-06
   64.1999969      -1.06138054E-06
   64.3199997      -6.73945749E-07
   64.4400024      -2.40563054E-07
   64.5599976       2.17595286E-07
   64.6800003       6.76918944E-07
   64.8000031       1.11308975E-06
   64.9199982       1.50289702E-06
   65.0400009       1.82597728E-06
   65.1600037       2.06632149E-06
   65.2799988       2.21341611E-06
   65.4000015       2.26291445E-06
   65.5199966       2.21678238E-06
   65.6399994       2.08291181E-06
   65.7600021       1.87423927E-06
   65.8799973       1.60746322E-06
   66.0000000       1.30148135E-06
   66.1200027       9.75700459E-07
   66.2399979       6.48380023E-07
   66.3600006       3.35163776E-07
   66.4800034       4.79360445E-08
   66.5999985      -2.05894352E-07
   66.7200012      -4.23623959E-07
   66.8399963      -6.06986475E-07
   66.9599991      -7.61425042E-07
   67.0800018      -8.94990137E-07
   67.1999969      -1.01698299E-06
   67.3199997      -1.13649344E-06
   67.4400024      -1.26098814E-06
   67.5599976      -1.39510291E-06
   67.6800003      -1.53976953E-06
   67.8000031      -1.69177326E-06
   67.9199982      -1.84379542E-06
   68.0400009      -1.98493785E-06
   68.1600037      -2.10168514E-06
   68.2799988      -2.17919910E-06
   68.4000015      -2.20282345E-06
   68.5199966      -2.15963655E-06
   68.6399994      -2.03989634E-06
   68.7600021      -1.83822840E-06
   68.8799973      -1.55443615E-06
   69.0000000      -1.19385834E-06
   69.1200027      -7.67236997E-07
   69.2399979      -2.90117299E-07
   69.3600006       2.18155350E-07
   69.4800034       7.35737615E-07
   69.5999985       1.23976292E-06
   69.7200012       1.70784858E-06
   69.8399963       2.11950419E-06
   69.9599991       2.45732758E-06
   70.0800018       2.70790702E-06
   70.1999969       2.86237764E-06
   70.3199997       2.91663287E-06
   70.4400024       2.87120747E-06
   70.5599976       2.73089017E-06
   70.6800003       2.50413609E-06
   70.8000031       2.20235688E-06
   70.9199982       1.83915984E-06
   71.0400009       1.42960323E-06
   71.1600037       9.89510454E-07
   71.2799988       5.34867581E-07
   71.4000015       8.13115122E-08
   71.5199966      -3.56298330E-07
   71.6399994      -7.64245328E-07
   71.7600021      -1.13027670E-06
   71.8799973      -1.44389912E-06
   72.0000000      -1.69665805E-06
   72.1200027      -1.88239846E-06
   72.2399979      -1.99749297E-06
   72.3600006      -2.04101548E-06
   72.4800034      -2.01482726E-06
   72.5999985      -1.92354673E-06
   72.7200012      -1.77437869E-06