  -30.0000000       0.00000000    
  -29.8799992       0.00000000    
  -29.7600002       0.00000000    
  -29.6399994       0.00000000    
  -29.5200005       0.00000000    
  -29.3999996       0.00000000    
  -29.2800007      -5.18480432E-44
  -29.1599998      -6.36189503E-43
  -29.0400009      -3.13190207E-42
  -28.9200001      -4.67192908E-42
  -28.7999992       3.27987919E-41
  -28.6800003       2.48572131E-40
  -28.5599995       8.88971134E-40
  -28.4400005       1.98049996E-39
  -28.3199997       2.26397563E-39
  -28.2000008      -2.65638124E-39
  -28.0799999      -2.16840007E-38
  -27.9599991      -6.52410429E-38
  -27.8400002      -1.30742066E-37
  -27.7199993      -1.69107981E-37
  -27.6000004      -3.68493684E-38
  -27.4799995       5.25954801E-37
  -27.3600006       1.79417682E-36
  -27.2399998       3.70115058E-36
  -27.1200008       5.18566456E-36
  -27.0000000       3.52088109E-36
  -26.8799992      -5.57489891E-36
  -26.7600002      -2.58526536E-35
  -26.6399994      -5.56615631E-35
  -26.5200005      -8.12680201E-35
  -26.3999996      -7.24428183E-35
  -26.2800007       1.26817574E-35
  -26.1599998       2.06629178E-34
  -26.0400009       4.94807633E-34
  -25.9200001       7.73111431E-34
  -25.7999992       8.28298778E-34
  -25.6800003       3.76833895E-34
  -25.5599995      -8.12064558E-34
  -25.4400005      -2.71825189E-33
  -25.3199997      -4.86092040E-33
  -25.2000008      -6.19450625E-33
  -25.0799999      -5.24852350E-33
  -24.9599991      -6.07191551E-34
  -24.8400002       8.29432193E-33
  -24.7199993       2.02570194E-32
  -24.6000004       3.16671360E-32
  -24.4799995       3.65837381E-32
  -24.3600006       2.79747848E-32
  -24.2399998       2.28764494E-34
  -24.1200008      -4.74153837E-32
  -24.0000000      -1.07464199E-31
  -23.8799992      -1.62242447E-31
  -23.7600002      -1.85088051E-31
  -23.6399994      -1.45969856E-31
  -23.5200005      -2.17956327E-32
  -23.3999996       1.90022941E-31
  -23.2800007       4.58288807E-31
  -23.1599998       7.10504050E-31
  -23.0400009       8.37519506E-31
  -22.9200001       7.15624645E-31
  -22.7999992       2.47357090E-31
  -22.6800003      -5.84681204E-31
  -22.5599995      -1.66554553E-30
  -22.4400005      -2.71963821E-30
  -22.3199997      -3.33158797E-30
  -22.2000008      -3.03491144E-30
  -22.0799999      -1.46850155E-30
  -21.9599991       1.42777716E-30
  -21.8400002       5.23868480E-30
  -21.7199993       9.00236832E-30
  -21.6000004       1.13213399E-29
  -21.4799995       1.06964908E-29
  -21.3600006       6.05143326E-30
  -21.2399998      -2.67826138E-30
  -21.1200008      -1.40968743E-29
  -21.0000000      -2.52758083E-29
  -20.8799992      -3.22340126E-29
  -20.7600002      -3.09975806E-29
  -20.6399994      -1.90455227E-29
  -20.5200005       3.27201467E-30
  -20.3999996       3.18889522E-29
  -20.2800007       5.92587278E-29
  -20.1599998       7.59268209E-29
  -20.0400009       7.32707830E-29
  -19.9200001       4.67497707E-29
  -19.7999992      -1.37284763E-30
  -19.6800003      -6.09660767E-29
  -19.5599995      -1.15460884E-28
  -19.4400005      -1.45925605E-28
  -19.3199997      -1.37028965E-28
  -19.2000008      -8.32608524E-29
  -19.0799999       6.73282238E-30
  -18.9599991       1.09738321E-28
  -18.8400002       1.92676977E-28
  -18.7199993       2.22129971E-28
  -18.6000004       1.76598929E-28
  -18.4799995       5.78317160E-29
  -18.3600006      -1.03238295E-28
  -18.2399998      -2.49853010E-28
  -18.1200008      -3.13897307E-28
  -18.0000000      -2.39794673E-28
  -17.8799992      -1.20253486E-29
  -17.7600002       3.23070367E-28
  -17.6399994       6.51952997E-28
  -17.5200005       8.13692113E-28
  -17.3999996       6.47418540E-28
  -17.2800007       6.02421016E-29
  -17.1599998      -9.02514365E-28
  -17.0400009      -2.01155968E-27
  -16.9200001      -2.86124107E-27
  -16.7999992      -2.95134146E-27
  -16.6800003      -1.84441554E-27
  -16.5599995       6.28452463E-28
  -16.4400005       4.17121836E-27
  -16.3199997       7.91583477E-27
  -16.2000008       1.04866739E-26
  -16.0799999       1.02906343E-26
  -15.9600000       6.02657106E-27
  -15.8400002      -2.67757148E-27
  -15.7200003      -1.46811128E-26
  -15.6000004      -2.70442318E-26
  -15.4799995      -3.52832061E-26
  -15.3599997      -3.43222995E-26
  -15.2399998      -2.01100228E-26
  -15.1199999       8.39257407E-27
  -15.0000000       4.74151287E-26
  -14.8800001       8.75231807E-26
  -14.7600002       1.14453055E-25
  -14.6400003       1.12106133E-25
  -14.5200005       6.75964802E-26
  -14.3999996      -2.25512607E-26
  -14.2799997      -1.46786874E-25
  -14.1599998      -2.75808921E-25
  -14.0400000      -3.65031357E-25
  -13.9200001      -3.63706440E-25
  -13.8000002      -2.30424594E-25
  -13.6800003       4.77094016E-26
  -13.5600004       4.37456948E-25
  -13.4399996       8.50395014E-25
  -13.3199997       1.14951145E-24
  -13.1999998       1.17609014E-24
  -13.0799999       7.96369727E-25
  -12.9600000      -3.97786285E-26
  -12.8400002      -1.24359179E-24
  -12.7200003      -2.55658775E-24
  -12.6000004      -3.56581261E-24
  -12.4799995      -3.78008459E-24
  -12.3599997      -2.76730473E-24
  -12.2399998      -3.31588018E-25
  -12.1199999       3.31415612E-24
  -12.0000000       7.44221160E-24
  -11.8800001       1.08363346E-23
  -11.7600002       1.19985665E-23
  -11.6400003       9.54316907E-24
  -11.5200005       2.72252425E-24
  -11.3999996      -8.03916394E-24
  -11.2799997      -2.07842618E-23
  -11.1599998      -3.20295640E-23
  -11.0400000      -3.72983597E-23
  -10.9200001      -3.22177893E-23
  -10.8000002      -1.40473234E-23
  -10.6800003       1.66989390E-23
  -10.5600004       5.50464994E-23
  -10.4399996       9.13535133E-23
  -10.3199997       1.12589624E-22
  -10.1999998       1.05288060E-22
  -10.0799999       5.98725358E-23
  -9.96000004      -2.45245291E-23
  -9.84000015      -1.36163779E-22
  -9.72000027      -2.49401392E-22
  -9.60000038      -3.27489357E-22
  -9.47999954      -3.30211041E-22
  -9.35999966      -2.25776737E-22
  -9.23999977      -4.75288143E-24
  -9.11999989       3.07776165E-22
  -9.00000000       6.46555245E-22
  -8.88000011       9.11497903E-22
  -8.76000023       9.86649968E-22
  -8.64000034       7.71946465E-22
  -8.52000046       2.22363405E-22
  -8.39999962      -6.15530065E-22
  -8.27999973      -1.58271579E-21
  -8.15999985      -2.41566445E-21
  -8.03999996      -2.79181191E-21
  -7.92000008      -2.41234624E-21
  -7.80000019      -1.10961190E-21
  -7.67999983       1.04673426E-21
  -7.55999994       3.68049571E-21
  -7.44000006       6.11413660E-21
  -7.32000017       7.47595983E-21
  -7.19999981       6.91374439E-21
  -7.07999992       3.88553068E-21
  -6.96000004      -1.53914947E-21
  -6.84000015      -8.46444874E-21
  -6.71999979      -1.51463313E-20
  -6.59999990      -1.92481568E-20
  -6.48000002      -1.83988103E-20
  -6.36000013      -1.09865685E-20
  -6.23999977       2.98519709E-21
  -6.11999989       2.12466252E-20
  -6.00000000       3.91210935E-20
  -5.88000011       5.01567071E-20
  -5.76000023       4.76365398E-20
  -5.63999987       2.68204686E-20
  -5.51999998      -1.25407794E-20
  -5.40000010      -6.41682194E-20
  -5.28000021      -1.14603211E-19
  -5.15999985      -1.44774585E-19
  -5.03999996      -1.34225874E-19
  -4.92000008      -6.77344082E-20
  -4.80000019       5.68760148E-20
  -4.67999983       2.21866436E-19
  -4.55999994       3.86435078E-19
  -4.44000006       4.90069409E-19
  -4.32000017       4.64256101E-19
  -4.19999981       2.52463071E-19
  -4.07999992      -1.64477537E-19
  -3.96000004      -7.43558339E-19
  -3.83999991      -1.36387773E-18
  -3.72000003      -1.82946957E-18
  -3.59999990      -1.89845871E-18
  -3.48000002      -1.34136621E-18
  -3.35999990      -2.33318441E-20
  -3.24000001       2.00504651E-18
  -3.11999989       4.43330634E-18
  -3.00000000       6.66451355E-18
  -2.88000011       7.86719073E-18
  -2.75999999       7.12611383E-18
  -2.64000010       3.69100893E-18
  -2.51999998      -2.70833243E-18
  -2.40000010      -1.15465315E-17
  -2.27999997      -2.12827004E-17
  -2.16000009      -2.93466741E-17
  -2.03999996      -3.24300924E-17
  -1.91999996      -2.71347253E-17
  -1.79999995      -1.09484211E-17
  -1.67999995       1.65903595E-17
  -1.55999994       5.27953088E-17
  -1.44000006       9.11523918E-17
  -1.32000005       1.21441430E-16
  -1.20000005       1.30982832E-16
  -1.08000004       1.07153877E-16
 -0.959999979       4.10218685E-17
 -0.839999974      -6.84395673E-17
 -0.720000029      -2.10479177E-16
 -0.600000024      -3.60272759E-16
 -0.479999989      -4.79523721E-16
 -0.360000014      -5.21044165E-16
 -0.239999995      -4.37771932E-16
 -0.119999997      -1.95666914E-16
  -1.11022302E-15   2.11345507E-16
  0.119999997       7.47522458E-16
  0.239999995       1.32668642E-15
  0.360000014       1.81330632E-15
  0.479999989       2.03702742E-15
  0.600000024       1.82243226E-15
  0.720000029       1.03260590E-15
  0.839999974      -3.79042929E-16
  0.959999979      -2.31859091E-15
   1.08000004      -4.51648301E-15
   1.20000005      -6.52249971E-15
   1.32000005      -7.74425452E-15
   1.44000006      -7.53710499E-15
   1.55999994      -5.34370555E-15
   1.67999995      -8.68398612E-16
   1.79999995       5.74269788E-15
   1.91999996       1.37578420E-14
   2.03999996       2.18013846E-14
   2.16000009       2.79286024E-14
   2.27999997       2.98673168E-14
   2.40000010       2.54326945E-14
   2.51999998       1.30828457E-14
   2.64000010      -7.46277531E-15
   2.75999999      -3.46640712E-14
   2.88000011      -6.48133416E-14
   3.00000000      -9.20612328E-14
   3.11999989      -1.08948678E-13
   3.24000001      -1.07510131E-13
   3.35999990      -8.09069405E-14
   3.48000002      -2.54131755E-14
   3.59999990       5.75666901E-14
   3.72000003       1.59891794E-13
   3.83999991       2.66000844E-13
   3.96000004       3.53636283E-13
   4.07999992       3.96323382E-13
   4.19999981       3.67685645E-13
   4.32000017       2.47302477E-13
   4.44000006       2.73739348E-14
   4.55999994      -2.80976360E-13
   4.67999983      -6.43258504E-13
   4.80000019      -1.00065073E-12
   4.92000008      -1.27394178E-12
   5.03999996      -1.37325199E-12
   5.15999985      -1.21348038E-12
   5.28000021      -7.34186258E-13
   5.40000010       7.87518718E-14
   5.51999998       1.17363638E-12
   5.63999987       2.42042844E-12
   5.76000023       3.61020241E-12
   5.88000011       4.47079353E-12
   6.00000000       4.70095924E-12
   6.11999989       4.02238355E-12
   6.23999977       2.24503098E-12
   6.36000013      -6.62809326E-13
   6.48000002      -4.51224952E-12
   6.59999990      -8.85431745E-12
   6.71999979      -1.29787335E-11
   6.84000015      -1.59640010E-11
   6.96000004      -1.67861541E-11
   7.07999992      -1.44846262E-11
   7.19999981      -8.37224561E-12
   7.32000017       1.73611494E-12
   7.44000006       1.53134380E-11
   7.55999994       3.09745146E-11
   7.67999983       4.64420551E-11
   7.80000019       5.86675777E-11
   7.92000008       6.41348433E-11
   8.03999996       5.93493935E-11
   8.15999985       4.14852978E-11
   8.27999973       9.12383103E-12
   8.39999962      -3.70176910E-11
   8.52000046      -9.34975500E-11
   8.64000034      -1.53847587E-10
   8.76000023      -2.08698003E-10
   8.88000011      -2.46438703E-10
   9.00000000      -2.54469529E-10
   9.11999989      -2.21008919E-10
   9.23999977      -1.37329648E-10
   9.35999966      -1.83344862E-13
   9.47999954       1.85923041E-10
   9.60000038       4.07007206E-10
   9.72000027       6.38882058E-10
   9.84000015       8.47817538E-10
   9.96000004       9.92886773E-10
   10.0799999       1.03011366E-09
   10.1999998       9.18295384E-10
   10.3199997       6.26088736E-10
   10.4399996       1.39654399E-10
   10.5600004      -5.30116284E-10
   10.6800003      -1.34195421E-09
   10.8000002      -2.22138308E-09
   10.9200001      -3.06185077E-09
   11.0400000      -3.73070419E-09
   11.1599998      -4.08042355E-09
   11.2799997      -3.96492217E-09
   11.3999996      -3.25997895E-09
   11.5200005      -1.88609217E-09
   11.6400003       1.68675157E-10
   11.7600002       2.82885781E-09
   11.8800001       5.91804783E-09
   12.0000000       9.15489995E-09
   12.1199999       1.21614292E-08
   12.2399998       1.44854511E-08
   12.3599997       1.56376547E-08
   12.4799995       1.51421595E-08
   12.6000004       1.25975106E-08
   12.7200003       7.74328157E-09
   12.8400002       5.25700095E-10
   12.9600000      -8.84538842E-09
   13.0799999      -1.98565147E-08
   13.1999998      -3.16755830E-08
   13.3199997      -4.31686082E-08
   13.4399996      -5.29529771E-08
   13.5600004      -5.94887553E-08
   13.6800003      -6.12061228E-08
   13.8000002      -5.66628060E-08
   13.9200001      -4.47212258E-08
   14.0400000      -2.47315750E-08
   14.1599998       3.29615779E-09
   14.2799997       3.85497003E-08
   14.3999996       7.93203867E-08
   14.5200005       1.22974683E-07
   14.6400003       1.66005449E-07
   14.7600002       2.04171954E-07
   14.8800001       2.32731551E-07
   15.0000000       2.46758390E-07
   15.1199999       2.41536867E-07
   15.2399998       2.13009955E-07
   15.3599997       1.58255560E-07
   15.4799995       7.59594485E-08
   15.6000004      -3.31514300E-08
   15.7200003      -1.65950652E-07
   15.8400002      -3.16663943E-07
   15.9600000      -4.76760931E-07
   16.0799999      -6.35009769E-07
   16.2000008      -7.77709488E-07
   16.3199997      -8.89103148E-07
   16.4400005      -9.51963671E-07
   16.5599995      -9.48334389E-07
   16.6800003      -8.60392447E-07
   16.7999992      -6.71396378E-07
   16.9200001      -3.66671514E-07
   17.0400009       6.54189947E-08
   17.1599998       6.32569538E-07
   17.2800007       1.33774540E-06
   17.3999996       2.17856086E-06
   17.5200005       3.14686190E-06
   17.6399994       4.22854055E-06
   17.7600002       5.40360543E-06
   17.8799992       6.64650770E-06
   18.0000000       7.92672199E-06
   18.1200008       9.20956063E-06
   18.2399998       1.04571991E-05
   18.3600006       1.16298615E-05
   18.4799995       1.26871400E-05
   18.6000004       1.35893788E-05
   18.7199993       1.42990848E-05
   18.8400002       1.47823112E-05
   18.9599991       1.50099486E-05
   19.0799999       1.49589023E-05
   19.2000008       1.46130878E-05
   19.3199997       1.39642316E-05
   19.4400005       1.30124281E-05
   19.5599995       1.17664495E-05
   19.6800003       1.02437807E-05
   19.7999992       8.47038245E-06
   19.9200001       6.48017340E-06
   20.0400009       4.31424996E-06
   20.1599998       2.01985108E-06
   20.2800007      -3.50906703E-07
   20.3999996      -2.74248896E-06
   20.5200005      -5.09756728E-06
   20.6399994      -7.35875574E-06
   20.7600002      -9.47041190E-06
   20.8799992      -1.13804399E-05
   21.0000000      -1.30420376E-05
   21.1200008      -1.44153128E-05
   21.2399998      -1.54687168E-05
   21.3600006      -1.61802182E-05
   21.4799995      -1.65381553E-05
   21.6000004      -1.65417368E-05
   21.7199993      -1.62011511E-05
   21.8400002      -1.55372400E-05
   21.9599991      -1.45807553E-05
   22.0799999      -1.33712356E-05
   22.2000008      -1.19554852E-05
   22.3199997      -1.03857783E-05
   22.4400005      -8.71781776E-06
   22.5599995      -7.00855617E-06
   22.6800003      -5.31398882E-06
   22.7999992      -3.68699830E-06
   22.9200001      -2.17537490E-06
   23.0400009      -8.20098364E-07
   23.1599998       3.46039570E-07
   23.2800007       1.29940429E-06
   23.3999996       2.02604315E-06
   23.5200005       2.52174846E-06
   23.6399994       2.79167011E-06
   23.7600002       2.84951625E-06
   23.8799992       2.71639351E-06
   24.0000000       2.41937164E-06
   24.1200008       1.98985799E-06
   24.2399998       1.46187665E-06
   24.3600006       8.70356303E-07
   24.4799995       2.49509924E-07
   24.6000004      -3.68607488E-07
   24.7199993      -9.55302994E-07
   24.8400002      -1.48616607E-06
   24.9599991      -1.94168229E-06
   25.0799999      -2.30753949E-06
   25.2000008      -2.57464330E-06
   25.3199997      -2.73887736E-06
   25.4400005      -2.80065979E-06
   25.5599995      -2.76434730E-06
   25.6800003      -2.63754964E-06
   25.7999992      -2.43041518E-06
   25.9200001      -2.15493378E-06
   26.0400009      -1.82429983E-06
   26.1599998      -1.45236697E-06
   26.2800007      -1.05320544E-06
   26.3999996      -6.40761982E-07
   26.5200005      -2.28614155E-07
   26.6399994       1.70207088E-07
   26.7600002       5.43351518E-07
   26.8799992       8.79271909E-07
   27.0000000       1.16736283E-06
   27.1200008       1.39813824E-06
   27.2399998       1.56346221E-06
   27.3600006       1.65683571E-06
   27.4799995       1.67373082E-06
   27.6000004       1.61194873E-06
   27.7199993       1.47197159E-06
   27.8400002       1.25726672E-06
   27.9599991       9.74499585E-07
   28.0799999       6.33610739E-07
   28.2000008       2.47720465E-07
   28.3199997      -1.67169389E-07
   28.4400005      -5.92688025E-07
   28.5599995      -1.00882119E-06
   28.6800003      -1.39482506E-06
   28.7999992      -1.73029071E-06
   28.9200001      -1.99629767E-06
   29.0400009      -2.17658658E-06
   29.1599998      -2.25867143E-06
   29.2800007      -2.23480220E-06
   29.3999996      -2.10270309E-06
   29.5200005      -1.86601108E-06
   29.6399994      -1.53436315E-06
   29.7600002      -1.12310283E-06
   29.8799992      -6.52599624E-07
   30.0000000      -1.47207544E-07
   30.1200008       3.66085033E-07
   30.2399998       8.59234319E-07
   30.3600006       1.30485057E-06
   30.4799995       1.67792393E-06
   30.6000004       1.95744747E-06
   30.7199993       2.12782174E-06
   30.8400002       2.17993806E-06
   30.9599991       2.11185352E-06
   31.0799999       1.92900529E-06
   31.2000008       1.64393896E-06
   31.3199997       1.27556177E-06
   31.4400005       8.47969318E-07
   31.5599995       3.88922217E-07
   31.6800003      -7.19213276E-08
   31.7999992      -5.04895013E-07
   31.9200001      -8.82204233E-07
   32.0400009      -1.17966715E-06
   32.1599998      -1.37819791E-06
   32.2799988      -1.46493562E-06
   32.4000015      -1.43394811E-06
   32.5200005      -1.28647332E-06
   32.6399994      -1.03069601E-06
   32.7599983      -6.81088181E-07
   32.8800011      -2.57376428E-07
   33.0000000       2.16781459E-07
   33.1199989       7.15307692E-07
   33.2400017       1.21129608E-06
   33.3600006       1.67857581E-06
   33.4799995       2.09314908E-06
   33.5999985       2.43442196E-06
   33.7200012       2.68616782E-06
   33.8400002       2.83718396E-06
   33.9599991       2.88163073E-06
   34.0800018       2.81905932E-06
   34.2000008       2.65415906E-06
   34.3199997       2.39625888E-06
   34.4399986       2.05863989E-06
   34.5600014       1.65770609E-06
   34.6800003       1.21207268E-06
   34.7999992       7.41617043E-07
   34.9199982       2.66538848E-07
   35.0400009      -1.93535953E-07
   35.1599998      -6.20376682E-07
   35.2799988      -9.97871894E-07
   35.4000015      -1.31263789E-06
   35.5200005      -1.55449698E-06
   35.6399994      -1.71681245E-06
   35.7599983      -1.79667302E-06
   35.8800011      -1.79491565E-06
   36.0000000      -1.71598731E-06
   36.1199989      -1.56764384E-06
   36.2400017      -1.36049493E-06
   36.3600006      -1.10741064E-06
   36.4799995      -8.22814002E-07
   36.5999985      -5.21893014E-07
   36.7200012      -2.19772645E-07
   36.8400002       6.93047255E-08
   36.9599991       3.32740768E-07
   37.0800018       5.60234128E-07
   37.2000008       7.44279703E-07
   37.3199997       8.80478069E-07
   37.4399986       9.67631763E-07
   37.5600014       1.00762122E-06
   37.6800003       1.00506884E-06
   37.7999992       9.66821744E-07
   37.9199982       9.01293845E-07
   38.0400009       8.17722764E-07
   38.1599998       7.25406494E-07
   38.2799988       6.32981539E-07
   38.4000015       5.47802415E-07
   38.5200005       4.75470500E-07
   38.6399994       4.19544591E-07
   38.7599983       3.81447308E-07
   38.8800011       3.60561955E-07
   39.0000000       3.54494830E-07
   39.1199989       3.59463797E-07
   39.2400017       3.70762962E-07
   39.3600006       3.83248931E-07
   39.4799995       3.91795624E-07
   39.5999985       3.91673865E-07
   39.7200012       3.78823898E-07
   39.8400002       3.50006900E-07
   39.9599991       3.02838259E-07
   40.0800018       2.35723164E-07
   40.2000008       1.47727917E-07
   40.3199997       3.84289649E-08
   40.4399986      -9.22165668E-08
   40.5600014      -2.43939041E-07
   40.6800003      -4.16134924E-07
   40.7999992      -6.07742606E-07
   40.9199982      -8.17020407E-07
   41.0400009      -1.04125093E-06
   41.1599998      -1.27641260E-06
   41.2799988      -1.51687038E-06
   41.4000015      -1.75514651E-06
   41.5200005      -1.98182738E-06
   41.6399994      -2.18565810E-06
   41.7599983      -2.35385733E-06
   41.8800011      -2.47266235E-06
   42.0000000      -2.52809718E-06
   42.1199989      -2.50691710E-06
   42.2400017      -2.39767223E-06
   42.3600006      -2.19180379E-06
   42.4799995      -1.88468027E-06
   42.5999985      -1.47647177E-06
   42.7200012      -9.72774387E-07
   42.8400002      -3.84906684E-07
   42.9599991       2.70172137E-07
   43.0800018       9.70343535E-07
   43.2000008       1.68919757E-06
   43.3199997       2.39724159E-06
   43.4399986       3.06337665E-06
   43.5600014       3.65654068E-06
   43.6800003       4.14741362E-06
   43.7999992       4.51006281E-06
   43.9199982       4.72342890E-06
   44.0400009       4.77255162E-06
   44.1599998       4.64946743E-06
   44.2799988       4.35373386E-06
   44.4000015       3.89256229E-06
   44.5200005       3.28056467E-06
   44.6399994       2.53914527E-06
   44.7599983       1.69558177E-06
   44.8800011       7.81853487E-07
   45.0000000      -1.66720696E-07
   45.1199989      -1.11297447E-06
   45.2400017      -2.01945409E-06
   45.3600006      -2.84998964E-06
   45.4799995      -3.57122303E-06
   45.5999985      -4.15404293E-06
   45.7200012      -4.57487613E-06
   45.8400002      -4.81677853E-06
   45.9599991      -4.87028728E-06
   46.0800018      -4.73397358E-06
   46.2000008      -4.41465681E-06
   46.3199997      -3.92724769E-06
   46.4399986      -3.29420345E-06
   46.5600014      -2.54458655E-06
   46.6800003      -1.71275940E-06
   46.7999992      -8.36762979E-07
   46.9199982       4.35487451E-08
   47.0400009       8.88516354E-07
   47.1599998       1.66071266E-06
   47.2799988       2.32688444E-06
   47.4000015       2.85967485E-06
   47.5200005       3.23901190E-06
   47.6399994       3.45307058E-06
   47.7599983       3.49874153E-06
   47.8800011       3.38157565E-06
   48.0000000       3.11521512E-06
   48.1199989       2.72035277E-06
   48.2400017       2.22330118E-06
   48.3600006       1.65427980E-06
   48.4799995       1.04554340E-06
   48.5999985       4.29486732E-07
   48.7200012      -1.63145856E-07
   48.8400002      -7.04832473E-07
   48.9599991      -1.17253717E-06
   49.0800018      -1.54860379E-06
   49.2000008      -1.82125552E-06
   49.3199997      -1.98470616E-06
   49.4399986      -2.03891909E-06
   49.5600014      -1.98907424E-06
   49.6800003      -1.84481758E-06
   49.7999992      -1.61937510E-06
   49.9199982      -1.32860498E-06
   50.0400009      -9.90059448E-07
   50.1599998      -6.22104153E-07
   50.2799988      -2.43130813E-07
   50.4000015       1.29124771E-07
   50.5200005       4.78159166E-07
   50.6399994       7.89184071E-07
   50.7599983       1.04953278E-06
   50.8800011       1.24900714E-06
   51.0000000       1.38017344E-06
   51.1199989       1.43861087E-06
   51.2400017       1.42310068E-06
   51.3600006       1.33573678E-06
   51.4799995       1.18193270E-06
   51.5999985       9.70296810E-07
   51.7200012       7.12350527E-07
   51.8400002       4.22076539E-07
   51.9599991       1.15294185E-07
   52.0800018      -1.91121487E-07
   52.2000008      -4.80144649E-07
   52.3199997      -7.35578396E-07
   52.4399986      -9.43046132E-07
   52.5600014      -1.09092400E-06
   52.6800003      -1.17114178E-06
   52.7999992      -1.17978243E-06
   52.9199982      -1.11742418E-06
   53.0400009      -9.89182240E-07
   53.1599998      -8.04434706E-07
   53.2799988      -5.76235664E-07
   53.4000015      -3.20449402E-07
   53.5200005      -5.46608661E-08
   53.6399994       2.03061219E-07
   53.7599983       4.35457736E-07
   53.8800011       6.27331133E-07
   54.0000000       7.66658900E-07
   54.1199989       8.45480145E-07
   54.2400017       8.60484704E-07
   54.3600006       8.13254530E-07
   54.4799995       7.10136817E-07
   54.5999985       5.61753041E-07
   54.7200012       3.82180417E-07
   54.8400002       1.87863179E-07
   54.9599991      -3.66603747E-09
   55.0800018      -1.75161148E-07
   55.2000008      -3.11033119E-07
   55.3199997      -3.98615356E-07
   55.4399986      -4.29229914E-07
   55.5600014      -3.98973725E-07
   55.6800003      -3.09162743E-07
   55.7999992      -1.66392567E-07
   55.9199982       1.77985733E-08
   56.0400009       2.27654297E-07
   56.1599998       4.44273581E-07
   56.2799988       6.46969625E-07
   56.4000015       8.14827274E-07
   56.5200005       9.28353643E-07
   56.6399994       9.71102736E-07
   56.7599983       9.31151192E-07
   56.8800011       8.02304214E-07
   57.0000000       5.84925544E-07
   57.1199989       2.86307937E-07
   57.2400017      -7.94681227E-08
   57.3600006      -4.92200684E-07
   57.4799995      -9.26730308E-07
   57.5999985      -1.35453172E-06
   57.7200012      -1.74562535E-06
   57.8400002      -2.07067046E-06
   57.9599991      -2.30308387E-06
   58.0800018      -2.42102010E-06
   58.2000008      -2.40905183E-06
   58.3199997      -2.25942540E-06
   58.4399986      -1.97277768E-06
   58.5600014      -1.55826297E-06
   58.6800003      -1.03307639E-06
   58.7999992      -4.21409311E-07
   58.9199982       2.47075860E-07
   59.0400009       9.39133315E-07
   59.1599998       1.62003312E-06
   59.2799988       2.25571125E-06
   59.4000015       2.81480879E-06
   59.5200005       3.27045677E-06
   59.6399994       3.60168337E-06
   59.7599983       3.79436733E-06
   59.8800011       3.84169516E-06
   60.0000000       3.74412843E-06
   60.1199989       3.50892174E-06
   60.2400017       3.14927593E-06
   60.3600006       2.68322196E-06
   60.4799995       2.13234875E-06
   60.5999985       1.52048722E-06
   60.7200012       8.72446549E-07
   60.8400002       2.12880153E-07
   60.9599991      -4.34669602E-07
   61.0800018      -1.04852700E-06
   61.2000008      -1.60944160E-06
   61.3199997      -2.10097687E-06
   61.4399986      -2.50976245E-06
   61.5600014      -2.82565020E-06
   61.6800003      -3.04181049E-06
   61.7999992      -3.15479087E-06
   61.9199982      -3.16454589E-06
   62.0400009      -3.07443406E-06
   62.1599998      -2.89115542E-06
   62.2799988      -2.62460503E-06
   62.4000015      -2.28760950E-06
   62.5200005      -1.89551690E-06
   62.6399994      -1.46562422E-06
   62.7599983      -1.01645048E-06
   62.8800011      -5.66870085E-07
   63.0000000      -1.35161315E-07
   63.1199989       2.61973753E-07
   63.2400017       6.10334780E-07
   63.3600006       8.99015163E-07
   63.4799995       1.12098155E-06
   63.5999985       1.27337830E-06
   63.7200012       1.35751725E-06
   63.8400002       1.37854113E-06
   63.9599991       1.34478375E-06
   64.0800018       1.26687996E-06
   64.1999969       1.15670628E-06
   64.3199997       1.02625688E-06
   64.4400024       8.86562191E-07
   64.5599976       7.46761600E-07
   64.6800003       6.13424220E-07
   64.8000031       4.90185471E-07
   64.9199982       3.77734580E-07
   65.0400009       2.74150040E-07
   65.1600037       1.75539171E-07
   65.2799988       7.69045982E-08
   65.4000015      -2.68660649E-08
   65.5199966      -1.40006122E-07
   65.6399994      -2.64991598E-07
   65.7600021      -4.01886609E-07
   65.8799973      -5.47995569E-07
   66.0000000      -6.97870405E-07
   66.1200027      -8.43681335E-07
   66.2399979      -9.75916123E-07
   66.3600006      -1.08433551E-06
   66.4800034      -1.15907972E-06
   66.5999985      -1.19180243E-06
   66.7200012      -1.17670140E-06
   66.8399963      -1.11132579E-06
   66.9599991      -9.97059033E-07
   67.0800018      -8.39215602E-07
   67.1999969      -6.46727642E-07
   67.3199997      -4.31444789E-07
   67.4400024      -2.07115505E-07
   67.5599976       1.18492016E-08
   67.6800003       2.11699671E-07
   67.8000031       3.80620719E-07
   67.9199982       5.09819415E-07
   68.0400009       5.94312326E-07
   68.1600037       6.33331069E-07
   68.2799988       6.30304157E-07
   68.4000015       5.92421145E-07
   68.5199966       5.29826821E-07
   68.6399994       4.54533136E-07
   68.7600021       3.79161861E-07
   68.8799973       3.15645792E-07
   69.0000000       2.74016998E-07
   69.1200027       2.61396053E-07
   69.2399979       2.81272833E-07
   69.3600006       3.33138644E-07
   69.4800034       4.12493165E-07
   69.5999985       5.11215887E-07
   69.7200012       6.18261083E-07
   69.8399963       7.20608966E-07
   69.9599991       8.04390254E-07
   70.0800018       8.56090992E-07
   70.1999969       8.63740922E-07
   70.3199997       8.17997943E-07
   70.4400024       7.13047086E-07
   70.5599976       5.47250920E-07
   70.6800003       3.23504651E-07
   70.8000031       4.92708239E-08
   70.9199982      -2.63712025E-07
   71.0400009      -6.00029466E-07
   71.1600037      -9.41464577E-07
   71.2799988      -1.26809016E-06
   71.4000015      -1.55951182E-06
   71.5199966      -1.79618451E-06
   71.6399994      -1.96071869E-06
   71.7600021      -2.03909144E-06
   71.8799973      -2.02169008E-06
   72.0000000      -1.90411231E-06
   72.1200027      -1.68767417E-06
   72.2399979      -1.37958671E-06
   72.3600006      -9.92776791E-07
   72.4800034      -5.45355590E-07
   72.5999985      -5.97471228E-08
   72.7200012       4.38482715E-07