  -30.0000000       0.00000000    
  -29.8799992       0.00000000    
  -29.7600002       0.00000000    
  -29.6399994       0.00000000    
  -29.5200005       7.00649232E-44
  -29.3999996      -3.06183714E-42
  -29.2800007      -1.47935079E-41
  -29.1599998       7.34014149E-41
  -29.0400009       7.53849528E-40
  -28.9200001       2.83557088E-39
  -28.7999992       6.58849340E-39
  -28.6800003       1.15401959E-38
  -28.5599995       1.84838218E-38
  -28.4400005       2.36040234E-38
  -28.3199997      -2.72314387E-38
  -28.2000008      -3.44746372E-37
  -28.0799999      -1.36455216E-36
  -27.9599991      -3.45322451E-36
  -27.8400002      -5.83493075E-36
  -27.7199993      -4.83652681E-36
  -27.6000004       7.03347259E-36
  -27.4799995       3.79906286E-35
  -27.3600006       8.68164223E-35
  -27.2399998       1.27060734E-34
  -27.1200008       9.62297845E-35
  -27.0000000      -9.03124102E-35
  -26.8799992      -4.82332607E-34
  -26.7600002      -9.98367648E-34
  -26.6399994      -1.33648381E-33
  -26.5200005      -9.81338500E-34
  -26.3999996       5.99601990E-34
  -26.2800007       3.55044146E-33
  -26.1599998       7.14199437E-33
  -26.0400009       9.50471818E-33
  -25.9200001       7.94249354E-33
  -25.7999992       3.85471201E-35
  -25.6800003      -1.46320394E-32
  -25.5599995      -3.28778306E-32
  -25.4400005      -4.73882327E-32
  -25.3199997      -4.82483214E-32
  -25.2000008      -2.66195427E-32
  -25.0799999       2.04176037E-32
  -24.9599991       8.58771034E-32
  -24.8400002       1.51980194E-31
  -24.7199993       1.93669030E-31
  -24.6000004       1.85944246E-31
  -24.4799995       1.12506412E-31
  -24.3600006      -2.76872501E-32
  -24.2399998      -2.18400691E-31
  -24.1200008      -4.28606587E-31
  -24.0000000      -6.16836100E-31
  -23.8799992      -7.33867659E-31
  -23.7600002      -7.22349883E-31
  -23.6399994      -5.16601367E-31
  -23.5200005      -5.04922901E-32
  -23.3999996       7.17657263E-31
  -23.2800007       1.75975755E-30
  -23.1599998       2.92105042E-30
  -23.0400009       3.87572750E-30
  -22.9200001       4.13046822E-30
  -22.7999992       3.11065917E-30
  -22.6800003       3.45846049E-31
  -22.5599995      -4.26516295E-30
  -22.4400005      -1.01760233E-29
  -22.3199997      -1.60110531E-29
  -22.2000008      -1.96093282E-29
  -22.0799999      -1.84007786E-29
  -21.9599991      -1.01424842E-29
  -21.8400002       6.08406385E-30
  -21.7199993       2.88621035E-29
  -21.6000004       5.37809136E-29
  -21.4799995       7.35238863E-29
  -21.3600006       7.89920347E-29
  -21.2399998       6.15043742E-29
  -21.1200008       1.57767351E-29
  -21.0000000      -5.69592216E-29
  -20.8799992      -1.46568553E-28
  -20.7600002      -2.33277398E-28
  -20.6399994      -2.89352196E-28
  -20.5200005      -2.83625684E-28
  -20.3999996      -1.88837491E-28
  -20.2800007       8.82896165E-30
  -20.1599998       2.99382897E-28
  -20.0400009       6.40150321E-28
  -19.9200001       9.51738149E-28
  -19.7999992       1.12295929E-27
  -19.6800003       1.02867578E-27
  -19.5599995       5.62621867E-28
  -19.4400005      -3.16949304E-28
  -19.3199997      -1.53732649E-27
  -19.2000008      -2.87285134E-27
  -19.0799999      -3.93902286E-27
  -18.9599991      -4.24046094E-27
  -18.8400002      -3.28559681E-27
  -18.7199993      -7.62554002E-28
  -18.6000004       3.25579035E-27
  -18.4799995       8.13797230E-27
  -18.3600006       1.26319334E-26
  -18.2399998       1.49954647E-26
  -18.1200008       1.33695422E-26
  -18.0000000       6.38099109E-27
  -17.8799992      -6.12949122E-27
  -17.7600002      -2.24545205E-26
  -17.6399994      -3.87136971E-26
  -17.5200005      -4.91724736E-26
  -17.3999996      -4.73766194E-26
  -17.2800007      -2.80946433E-26
  -17.1599998       1.02299521E-26
  -17.0400009       6.31401249E-26
  -16.9200001       1.18827264E-25
  -16.7999992       1.58759749E-25
  -16.6800003       1.61020119E-25
  -16.5599995       1.06494792E-25
  -16.4400005      -1.28879873E-26
  -16.3199997      -1.85811379E-25
  -16.2000008      -3.76062739E-25
  -16.0799999      -5.23265737E-25
  -15.9600000      -5.52698876E-25
  -15.8400002      -3.95182089E-25
  -15.7200003      -1.48566421E-26
  -15.6000004       5.61258806E-25
  -15.4799995       1.22173068E-24
  -15.3599997       1.76892907E-24
  -15.2399998       1.94740491E-24
  -15.1199999       1.50710180E-24
  -15.0000000       2.95902909E-25
  -14.8800001      -1.63711978E-24
  -14.7600002      -3.95924989E-24
  -14.6400003      -6.03188647E-24
  -14.5200005      -6.98586266E-24
  -14.3999996      -5.91548176E-24
  -14.2799997      -2.18111757E-24
  -14.1599998       4.23262214E-24
  -14.0400000       1.24013123E-23
  -13.9200001       2.03187156E-23
  -13.8000002       2.50628730E-23
  -13.6800003       2.33634394E-23
  -13.5600004       1.25700512E-23
  -13.4399996      -8.11709709E-24
  -13.3199997      -3.64511830E-23
  -13.1999998      -6.64063867E-23
  -13.0799999      -8.83879959E-23
  -12.9600000      -9.07734734E-23
  -12.8400002      -6.29068104E-23
  -12.7200003       7.68175345E-25
  -12.6000004       9.62892456E-23
  -12.4799995       2.06835038E-22
  -12.3599997       3.02117874E-22
  -12.2399998       3.42039663E-22
  -12.1199999       2.85440849E-22
  -12.0000000       1.03461531E-22
  -11.8800001      -2.04735608E-22
  -11.7600002      -5.97990493E-22
  -11.6400003      -9.86403086E-22
  -11.5200005      -1.23752086E-21
  -11.3999996      -1.19959869E-21
  -11.2799997      -7.42431859E-22
  -11.1599998       1.89245144E-22
  -11.0400000       1.52126461E-21
  -10.9200001       3.01167313E-21
  -10.8000002       4.24865327E-21
  -10.6800003       4.70261064E-21
  -10.5600004       3.84127692E-21
  -10.4399996       1.30060378E-21
  -10.3199997      -2.91702153E-21
  -10.1999998      -8.26771707E-21
  -10.0799999      -1.35808710E-20
  -9.96000004      -1.71329477E-20
  -9.84000015      -1.69315244E-20
  -9.72000027      -1.12183414E-20
  -9.60000038       8.64376073E-22
  -9.47999954       1.85767527E-20
  -9.35999966       3.90561792E-20
  -9.23999977       5.72070551E-20
  -9.11999989       6.62313306E-20
  -9.00000000       5.89319270E-20
  -8.88000011       2.97448074E-20
  -8.76000023      -2.27867014E-20
  -8.64000034      -9.36456018E-20
  -8.52000046      -1.69848873E-19
  -8.39999962      -2.30676866E-19
  -8.27999973      -2.50337320E-19
  -8.15999985      -2.03370108E-19
  -8.03999996      -7.24219374E-20
  -7.92000008       1.42845122E-19
  -7.80000019       4.17829659E-19
  -7.67999983       6.98818932E-19
  -7.55999994       9.05463331E-19
  -7.44000006       9.42135246E-19
  -7.32000017       7.18825174E-19
  -7.19999981       1.79770516E-19
  -7.07999992      -6.64983264E-19
  -6.96000004      -1.71280536E-18
  -6.84000015      -2.75618110E-18
  -6.71999979      -3.49467637E-18
  -6.59999990      -3.57834363E-18
  -6.48000002      -2.68404516E-18
  -6.36000013      -6.17667964E-19
  -6.23999977       2.57491605E-18
  -6.11999989       6.51490759E-18
  -6.00000000       1.04487420E-17
  -5.88000011       1.32903928E-17
  -5.76000023       1.37718921E-17
  -5.63999987       1.07071036E-17
  -5.51999998       3.34565606E-18
  -5.40000010      -8.23934508E-18
  -5.28000021      -2.28181345E-17
  -5.15999985      -3.78353967E-17
  -5.03999996      -4.95171093E-17
  -4.92000008      -5.33379658E-17
  -4.80000019      -4.48756831E-17
  -4.67999983      -2.09903417E-17
  -4.55999994       1.88398507E-17
  -4.44000006       7.13002821E-17
  -4.32000017       1.28490517E-16
  -4.19999981       1.78014893E-16
  -4.07999992       2.04220160E-16
  -3.96000004       1.90724146E-16
  -3.83999991       1.24121442E-16
  -3.72000003      -1.57450118E-18
  -3.59999990      -1.80532116E-16
  -3.48000002      -3.91803481E-16
  -3.35999990      -5.98314269E-16
  -3.24000001      -7.49229547E-16
  -3.11999989      -7.86398041E-16
  -3.00000000      -6.54898664E-16
  -2.88000011      -3.16793499E-16
  -2.75999999       2.33840465E-16
  -2.64000010       9.57482126E-16
  -2.51999998       1.76086312E-15
  -2.40000010       2.49739597E-15
  -2.27999997       2.97926962E-15
  -2.16000009       3.00264434E-15
  -2.03999996       2.38507580E-15
  -1.91999996       1.01147635E-15
  -1.79999995      -1.11802526E-15
  -1.67999995      -3.84744006E-15
  -1.55999994      -6.84199376E-15
  -1.44000006      -9.59312924E-15
  -1.32000005      -1.14592826E-14
  -1.20000005      -1.17457025E-14
  -1.08000004      -9.82015186E-15
 -0.959999979      -5.25368543E-15
 -0.839999974       2.03198567E-15
 -0.720000029       1.16353909E-14
 -0.600000024       2.25929318E-14
 -0.479999989       3.33712380E-14
 -0.360000014       4.19568351E-14
 -0.239999995       4.60552278E-14
 -0.119999997       4.33964117E-14
  -1.11022302E-15   3.21258116E-14
  0.119999997       1.12408370E-14
  0.239999995      -1.89837024E-14
  0.360000014      -5.66499667E-14
  0.479999989      -9.80448023E-14
  0.600000024      -1.37669539E-13
  0.720000029      -1.68545868E-13
  0.839999974      -1.82827129E-13
  0.959999979      -1.72710262E-13
   1.08000004      -1.31603956E-13
   1.20000005      -5.54647880E-14
   1.32000005       5.58303437E-14
   1.44000006       1.97245879E-13
   1.55999994       3.57683989E-13
   1.67999995       5.19632406E-13
   1.79999995       6.59576506E-13
   1.91999996       7.49360101E-13
   2.03999996       7.58618428E-13
   2.16000009       6.58310537E-13
   2.27999997       4.25245641E-13
   2.40000010       4.73277288E-14
   2.51999998      -4.70954547E-13
   2.64000010      -1.10346920E-12
   2.75999999      -1.79867926E-12
   2.88000011      -2.47817825E-12
   3.00000000      -3.03855769E-12
   3.11999989      -3.35753062E-12
   3.24000001      -3.30494161E-12
   3.35999990      -2.75878127E-12
   3.48000002      -1.62562216E-12
   3.59999990       1.36017120E-13
   3.72000003       2.49180906E-12
   3.83999991       5.31064515E-12
   3.96000004       8.35065090E-12
   4.07999992       1.12566146E-11
   4.19999981       1.35730220E-11
   4.32000017       1.47759339E-11
   4.44000006       1.43250993E-11
   4.55999994       1.17352326E-11
   4.67999983       6.66214219E-12
   4.80000019      -1.00409741E-12
   4.92000008      -1.10500923E-11
   5.03999996      -2.28680859E-11
   5.15999985      -3.54182794E-11
   5.28000021      -4.72395179E-11
   5.40000010      -5.65207985E-11
   5.51999998      -6.12409776E-11
   5.63999987      -5.93768437E-11
   5.76000023      -4.91702790E-11
   5.88000011      -2.94350308E-11
   6.00000000       1.26670972E-13
   6.11999989       3.86363164E-11
   6.23999977       8.38246486E-11
   6.36000013       1.31936503E-10
   6.48000002       1.77797055E-10
   6.59999990       2.15071017E-10
   6.71999979       2.36730385E-10
   6.84000015       2.35723940E-10
   6.96000004       2.05815920E-10
   7.07999992       1.42533721E-10
   7.19999981       4.41389252E-11
   7.32000017      -8.74866291E-11
   7.44000006      -2.46159620E-10
   7.55999994      -4.21041813E-10
   7.67999983      -5.96725225E-10
   7.80000019      -7.53839879E-10
   7.92000008      -8.70228722E-10
   8.03999996      -9.22678822E-10
   8.15999985      -8.89139928E-10
   8.27999973      -7.51293250E-10
   8.39999962      -4.97273889E-10
   8.52000046      -1.24298655E-10
   8.64000034       3.59085345E-10
   8.76000023       9.31423827E-10
   8.88000011       1.55772861E-09
   9.00000000       2.19002949E-09
   9.11999989       2.76925771E-09
   9.23999977       3.22850791E-09
   9.35999966       3.49760043E-09
   9.47999954       3.50873508E-09
   9.60000038       3.20289306E-09
   9.72000027       2.53653143E-09
   9.84000015       1.48802970E-09
   9.96000004       6.33033140E-11
   10.0799999      -1.69998449E-09
   10.1999998      -3.73012110E-09
   10.3199997      -5.92134164E-09
   10.4399996      -8.13634760E-09
   10.5600004      -1.02113731E-08
   10.6800003      -1.19636194E-08
   10.8000002      -1.32006912E-08
   10.9200001      -1.37314906E-08
   11.0400000      -1.33779468E-08
   11.1599998      -1.19869306E-08
   11.2799997      -9.44173362E-09
   11.3999996      -5.67266412E-09
   11.5200005      -6.66446287E-10
   11.6400003       5.52560220E-09
   11.7600002       1.27805198E-08
   11.8800001       2.08974740E-08
   12.0000000       2.95920763E-08
   12.1199999       3.84910486E-08
   12.2399998       4.71273971E-08
   12.3599997       5.49367591E-08
   12.4799995       6.12561024E-08
   12.6000004       6.53270220E-08
   12.7200003       6.63062778E-08
   12.8400002       6.32872670E-08
   12.9600000       5.53363293E-08
   13.0799999       4.15478780E-08
   13.1999998       2.11218936E-08
   13.3199997      -6.53359766E-09
   13.4399996      -4.16746637E-08
   13.5600004      -8.40698675E-08
   13.6800003      -1.32829797E-07
   13.8000002      -1.86226174E-07
   13.9200001      -2.41512367E-07
   14.0400000      -2.94761094E-07
   14.1599998      -3.40736847E-07
   14.2799997      -3.72824587E-07
   14.3999996      -3.83033750E-07
   14.5200005      -3.62098575E-07
   14.6400003      -2.99690413E-07
   14.7600002      -1.84753006E-07
   14.8800001      -5.96531358E-09
   15.0000000       2.47673938E-07
   15.1199999       5.86154101E-07
   15.2399998       1.01767910E-06
   15.3599997       1.54784925E-06
   15.4799995       2.17884281E-06
   15.6000004       2.90865137E-06
   15.7200003       3.73042553E-06
   15.8400002       4.63199103E-06
   15.9600000       5.59558748E-06
   16.0799999       6.59787884E-06
   16.2000008       7.61027150E-06
   16.3199997       8.59956072E-06
   16.4400005       9.52889877E-06
   16.5599995       1.03590792E-05
   16.6800003       1.10500696E-05
   16.7999992       1.15627663E-05
   16.9200001       1.18608505E-05
   17.0400009       1.19126898E-05
   17.1599998       1.16931378E-05
   17.2800007       1.11851696E-05
   17.3999996       1.03812090E-05
   17.5200005       9.28408372E-06
   17.6399994       7.90752892E-06
   17.7600002       6.27617010E-06
   17.8799992       4.42499413E-06
   18.0000000       2.39829183E-06
   18.1200008       2.48122234E-07
   18.2399998      -1.96762903E-06
   18.3600006      -4.18751006E-06
   18.4799995      -6.34895923E-06
   18.6000004      -8.39083441E-06
   18.7199993      -1.02558743E-05
   18.8400002      -1.18929775E-05
   18.9599991      -1.32591640E-05
   19.0799999      -1.43211346E-05
   19.2000008      -1.50563656E-05
   19.3199997      -1.54536683E-05
   19.4400005      -1.55132529E-05
   19.5599995      -1.52462617E-05
   19.6800003      -1.46738876E-05
   19.7999992      -1.38260957E-05
   19.9200001      -1.27400617E-05
   20.0400009      -1.14584382E-05
   20.1599998      -1.00275229E-05
   20.2800007      -8.49545904E-06
   20.3999996      -6.91050445E-06
   20.5200005      -5.31948263E-06
   20.6399994      -3.76642606E-06
   20.7600002      -2.29145417E-06
   20.8799992      -9.29892451E-07
   21.0000000       2.88382012E-07
   21.1200008       1.33938420E-06
   21.2399998       2.20528068E-06
   21.3600006       2.87449598E-06
   21.4799995       3.34168931E-06
   21.6000004       3.60762124E-06
   21.7199993       3.67892494E-06
   21.8400002       3.56778469E-06
   21.9599991       3.29151749E-06
   22.0799999       2.87204944E-06
   22.2000008       2.33527908E-06
   22.3199997       1.71031536E-06
   22.4400005       1.02859224E-06
   22.5599995       3.22864992E-07
   22.6800003      -3.73894352E-07
   22.7999992      -1.02966908E-06
   22.9200001      -1.61459764E-06
   23.0400009      -2.10214944E-06
   23.1599998      -2.47021694E-06
   23.2800007      -2.70206783E-06
   23.3999996      -2.78709672E-06
   23.5200005      -2.72132843E-06
   23.6399994      -2.50763719E-06
   23.7600002      -2.15565046E-06
   23.8799992      -1.68134443E-06
   24.0000000      -1.10633130E-06
   24.1200008      -4.56877757E-07
   24.2399998       2.37301734E-07
   24.3600006       9.44418161E-07
   24.4799995       1.63207721E-06
   24.6000004       2.26877387E-06
   24.7199993       2.82533847E-06
   24.8400002       3.27626822E-06
   24.9599991       3.60088029E-06
   25.0799999       3.78424102E-06
   25.2000008       3.81782957E-06
   25.3199997       3.69991176E-06
   25.4400005       3.43560873E-06
   25.5599995       3.03666707E-06
   25.6800003       2.52093218E-06
   25.7999992       1.91155254E-06
   25.9200001       1.23594373E-06
   26.0400009       5.24552263E-07
   26.1599998      -1.90534578E-07
   26.2800007      -8.77075365E-07
   26.3999996      -1.50419771E-06
   26.5200005      -2.04388971E-06
   26.6399994      -2.47238859E-06
   26.7600002      -2.77139088E-06
   26.8799992      -2.92902132E-06
   27.0000000      -2.94048596E-06
   27.1200008      -2.80836753E-06
   27.2399998      -2.54252268E-06
   27.3600006      -2.15957152E-06
   27.4799995      -1.68198790E-06
   27.6000004      -1.13683632E-06
   27.7199993      -5.54217195E-07
   27.8400002       3.44841133E-08
   27.9599991       5.98435008E-07
   28.0799999       1.10915653E-06
   28.2000008       1.54216298E-06
   28.3199997       1.87832370E-06
   28.4400005       2.10484791E-06
   28.5599995       2.21582491E-06
   28.6800003       2.21228470E-06
   28.7999992       2.10178041E-06
   28.9200001       1.89754508E-06
   29.0400009       1.61729383E-06
   29.1599998       1.28178795E-06
   29.2800007       9.13283600E-07
   29.3999996       5.33998048E-07
   29.5200005       1.64719992E-07
   29.6399994      -1.76333273E-07
   29.7600002      -4.74336275E-07
   29.8799992      -7.18315562E-07
   30.0000000      -9.01250928E-07
   30.1200008      -1.01985597E-06
   30.2399998      -1.07410790E-06
   30.3600006      -1.06661582E-06
   30.4799995      -1.00192767E-06
   30.6000004      -8.85872737E-07
   30.7199993      -7.25016264E-07
   30.8400002      -5.26284850E-07
   30.9599991      -2.96781224E-07
   31.0799999      -4.37802186E-08
   31.2000008       2.25136532E-07
   31.3199997       5.01872705E-07
   31.4400005       7.77615071E-07
   31.5599995       1.04271783E-06
   31.6800003       1.28674242E-06
   31.7999992       1.49870198E-06
   31.9200001       1.66752625E-06
   32.0400009       1.78273206E-06
   32.1599998       1.83524651E-06
   32.2799988       1.81830660E-06
   32.4000015       1.72833177E-06
   32.5200005       1.56566364E-06
   32.6399994       1.33507262E-06
   32.7599983       1.04594437E-06
   32.8800011       7.12093424E-07
   33.0000000       3.51185633E-07
   33.1199989      -1.62056857E-08
   33.2400017      -3.67847861E-07
   33.3600006      -6.81304186E-07
   33.4799995      -9.35475043E-07
   33.5999985      -1.11209386E-06
   33.7200012      -1.19704828E-06
   33.8400002      -1.18141406E-06
   33.9599991      -1.06211633E-06
   34.0800018      -8.42170721E-07
   34.2000008      -5.30493651E-07
   34.3199997      -1.41316150E-07
   34.4399986       3.06735870E-07
   34.5600014       7.91801540E-07
   34.6800003       1.29007969E-06
   34.7999992       1.77714992E-06
   34.9199982       2.22921904E-06
   35.0400009       2.62421759E-06
   35.1599998       2.94268671E-06
   35.2799988       3.16843807E-06
   35.4000015       3.28898727E-06
   35.5200005       3.29578597E-06
   35.6399994       3.18430148E-06
   35.7599983       2.95398786E-06
   35.8800011       2.60819593E-06
   36.0000000       2.15405794E-06
   36.1199989       1.60236095E-06
   36.2400017       9.67410870E-07
   36.3600006       2.66863481E-07
   36.4799995      -4.78510515E-07
   36.5999985      -1.24516703E-06
   36.7200012      -2.00727732E-06
   36.8400002      -2.73739056E-06
   36.9599991      -3.40728525E-06
   37.0800018      -3.98899419E-06
   37.2000008      -4.45596970E-06
   37.3199997      -4.78432776E-06
   37.4399986      -4.95409950E-06
   37.5600014      -4.95039376E-06
   37.6800003      -4.76439300E-06
   37.7999992      -4.39409223E-06
   37.9199982      -3.84472469E-06
   38.0400009      -3.12883071E-06
   38.1599998      -2.26595898E-06
   38.2799988      -1.28201350E-06
   38.4000015      -2.08289350E-07
   38.5200005       9.19741467E-07
   38.6399994       2.06381719E-06
   38.7599983       3.18436696E-06
   38.8800011       4.24200471E-06
   39.0000000       5.19895866E-06
   39.1199989       6.02038517E-06
   39.2400017       6.67552649E-06
   39.3600006       7.13867803E-06
   39.4799995       7.38996187E-06
   39.5999985       7.41591430E-06
   39.7200012       7.20988373E-06
   39.8400002       6.77226581E-06
   39.9599991       6.11057567E-06
   40.0800018       5.23937160E-06
   40.2000008       4.18002082E-06
   40.3199997       2.96029953E-06
   40.4399986       1.61381570E-06
   40.5600014       1.79234021E-07
   40.6800003      -1.30071157E-06
   40.7999992      -2.78042103E-06
   40.9199982      -4.21283721E-06
   41.0400009      -5.55103588E-06
   41.1599998      -6.74994999E-06
   41.2799988      -7.76814886E-06
   41.4000015      -8.56960378E-06
   41.5200005      -9.12532232E-06
   41.6399994      -9.41476628E-06
   41.7599983      -9.42694260E-06
   41.8800011      -9.16108456E-06
   42.0000000      -8.62687193E-06
   42.1199989      -7.84415079E-06
   42.2400017      -6.84214410E-06
   42.3600006      -5.65820847E-06
   42.4799995      -4.33618607E-06
   42.5999985      -2.92445020E-06
   42.7200012      -1.47375704E-06
   42.8400002      -3.50232199E-08
   42.9599991       1.34284846E-06
   43.0800018       2.61498076E-06
   43.2000008       3.74227170E-06
   43.3199997       4.69280940E-06
   43.4399986       5.44288605E-06
   43.5600014       5.97759663E-06
   43.6800003       6.29100805E-06
   43.7999992       6.38591746E-06
   43.9199982       6.27324152E-06
   44.0400009       5.97108374E-06
   44.1599998       5.50355071E-06
   44.2799988       4.89938111E-06
   44.4000015       4.19046364E-06
   44.5200005       3.41032569E-06
   44.6399994       2.59264402E-06
   44.7599983       1.76985520E-06
   44.8800011       9.71907525E-07
   45.0000000       2.25202299E-07
   45.1199989      -4.48247022E-07
   45.2400017      -1.03141622E-06
   45.3600006      -1.51262179E-06
   45.4799995      -1.88562069E-06
   45.5999985      -2.14946999E-06
   45.7200012      -2.30815840E-06
   45.8400002      -2.37003837E-06
   45.9599991      -2.34708432E-06
   46.0800018      -2.25401959E-06
   46.2000008      -2.10734902E-06
   46.3199997      -1.92434550E-06
   46.4399986      -1.72204091E-06
   46.5600014      -1.51626807E-06
   46.6800003      -1.32080856E-06
   46.7999992      -1.14668819E-06
   46.9199982      -1.00166335E-06
   47.0400009      -8.89927492E-07
   47.1599998      -8.12054338E-07
   47.2799988      -7.65186542E-07
   47.4000015      -7.43453086E-07
   47.5200005      -7.38591723E-07
   47.6399994      -7.40732901E-07
   47.7599983      -7.39291636E-07
   47.8800011      -7.23902929E-07
   48.0000000      -6.85334044E-07
   48.1199989      -6.16305385E-07
   48.2400017      -5.12156703E-07
   48.3600006      -3.71309255E-07
   48.4799995      -1.95484688E-07
   48.5999985       1.03349471E-08
   48.7200012       2.38205686E-07
   48.8400002       4.77754895E-07
   48.9599991       7.16907323E-07
   49.0800018       9.42746055E-07
   49.2000008       1.14244096E-06
   49.3199997       1.30417084E-06
   49.4399986       1.41796886E-06
   49.5600014       1.47642686E-06
   49.6800003       1.47520745E-06
   49.7999992       1.41333305E-06
   49.9199982       1.29323246E-06
   50.0400009       1.12055375E-06
   50.1599998       9.03761645E-07
   50.2799988       6.53562267E-07
   50.4000015       3.82200199E-07
   50.5200005       1.02688269E-07
   50.6399994      -1.71972346E-07
   50.7599983      -4.29524306E-07
   50.8800011      -6.59088869E-07
   51.0000000      -8.51664254E-07
   51.1199989      -1.00046304E-06
   51.2400017      -1.10107840E-06
   51.3600006      -1.15148600E-06
   51.4799995      -1.15190255E-06
   51.5999985      -1.10453323E-06
   51.7200012      -1.01324827E-06
   51.8400002      -8.83229177E-07
   51.9599991      -7.20623632E-07
   52.0800018      -5.32239937E-07
   52.2000008      -3.25296810E-07
   52.3199997      -1.07233696E-07
   52.4399986       1.14429881E-07
   52.5600014       3.32206355E-07
   52.6800003       5.38751578E-07
   52.7999992       7.27002885E-07
   52.9199982       8.90365015E-07
   53.0400009       1.02295212E-06
   53.1599998       1.11988004E-06
   53.2799988       1.17758464E-06
   53.4000015       1.19413301E-06
   53.5200005       1.16947979E-06
   53.6399994       1.10562792E-06
   53.7599983       1.00665238E-06
   53.8800011       8.78566595E-07
   54.0000000       7.29025032E-07
   54.1199989       5.66878839E-07
   54.2400017       4.01619303E-07
   54.3600006       2.42757352E-07
   54.4799995       9.91940965E-08
   54.5999985      -2.13634337E-08
   54.7200012      -1.12896814E-07
   54.8400002      -1.71450651E-07
   54.9599991      -1.95372891E-07
   55.0800018      -1.85422323E-07
   55.2000008      -1.44757081E-07
   55.3199997      -7.88215360E-08
   55.4399986       4.85154672E-09
   55.5600014       9.69137588E-08
   55.6800003       1.86551077E-07
   55.7999992       2.61921969E-07
   55.9199982       3.10701950E-07
   56.0400009       3.20751667E-07
   56.1599998       2.80914719E-07
   56.2799988       1.81934382E-07
   56.4000015       1.74497341E-08
   56.5200005      -2.14994998E-07
   56.6399994      -5.13023849E-07
   56.7599983      -8.68701420E-07
   56.8800011      -1.26812847E-06
   57.0000000      -1.69147654E-06
   57.1199989      -2.11355723E-06
   57.2400017      -2.50497055E-06
   57.3600006      -2.83382678E-06
   57.4799995      -3.06796824E-06
   57.5999985      -3.17754530E-06
   57.7200012      -3.13774262E-06
   57.8400002      -2.93140988E-06
   57.9599991      -2.55132295E-06
   58.0800018      -2.00180853E-06
   58.2000008      -1.29951400E-06
   58.3199997      -4.73158565E-07
   58.4399986       4.37794483E-07
   58.5600014       1.38550172E-06
   58.6800003       2.31698300E-06
   58.7999992       3.17798867E-06
   58.9199982       3.91715093E-06
   59.0400009       4.49003710E-06
   59.1599998       4.86271347E-06
   59.2799988       5.01446402E-06
   59.4000015       4.93938933E-06
   59.5200005       4.64670711E-06
   59.6399994       4.15972681E-06
   59.7599983       3.51358585E-06
   59.8800011       2.75197931E-06
   60.0000000       1.92320817E-06
   60.1199989       1.07595019E-06
   60.2400017       2.55174399E-07
   60.3600006      -5.01397494E-07
   60.4799995      -1.16594322E-06
   60.5999985      -1.72206819E-06
   60.7200012      -2.16509693E-06
   60.8400002      -2.50114590E-06
   60.9599991      -2.74512468E-06
   61.0800018      -2.91792162E-06
   61.2000008      -3.04310220E-06
   61.3199997      -3.14349518E-06
   61.4399986      -3.23803010E-06
   61.5600014      -3.33916410E-06
   61.6800003      -3.45114745E-06
   61.7999992      -3.56929922E-06
   61.9199982      -3.68033943E-06
   62.0400009      -3.76373509E-06
   62.1599998      -3.79389871E-06
   62.2799988      -3.74301499E-06
   62.4000015      -3.58420584E-06
   62.5200005      -3.29472641E-06
   62.6399994      -2.85888268E-06
   62.7599983      -2.27040005E-06
   62.8800011      -1.53402186E-06
   63.0000000      -6.66189464E-07
   63.1199989       3.05263342E-07
   63.2400017       1.34238712E-06
   63.3600006       2.39927090E-06
   63.4799995       3.42491035E-06
   63.5999985       4.36657638E-06
   63.7200012       5.17342869E-06
   63.8400002       5.80009782E-06
   63.9599991       6.20997298E-06
   64.0800018       6.37793255E-06
   64.1999969       6.29231727E-06
   64.3199997       5.95597112E-06
   64.4400024       5.38626682E-06
   64.5599976       4.61409309E-06
   64.6800003       3.68186102E-06
   64.8000031       2.64066739E-06
   64.9199982       1.54682039E-06
   65.0400009       4.57986204E-07
   65.1600037      -5.70746977E-07
   65.2799988      -1.49057962E-06
   65.4000015      -2.26219390E-06
   65.5199966      -2.85817055E-06
   65.6399994      -3.26444365E-06
   65.7600021      -3.48067783E-06
   65.8799973      -3.51955259E-06
   66.0000000      -3.40502879E-06
   66.1200027      -3.16976366E-06
   66.2399979      -2.85190845E-06
   66.3600006      -2.49158211E-06
   66.4800034      -2.12733130E-06
   66.5999985      -1.79288520E-06
   66.7200012      -1.51448114E-06
   66.8399963      -1.30897592E-06
   66.9599991      -1.18287971E-06
   67.0800018      -1.13236263E-06
   67.1999969      -1.14419151E-06
   67.3199997      -1.19747256E-06
   67.4400024      -1.26600958E-06
   67.5599976      -1.32103685E-06
   67.6800003      -1.33407298E-06
   67.8000031      -1.27964051E-06
   67.9199982      -1.13763019E-06
   68.0400009      -8.95131734E-07
   68.1600037      -5.47617219E-07
   68.2799988      -9.94220954E-08
   68.4000015       4.36462898E-07
   68.5199966       1.03922537E-06
   68.6399994       1.68158215E-06
   68.7600021       2.33151377E-06
   68.8799973       2.95424002E-06
   69.0000000       3.51429526E-06
   69.1200027       3.97757958E-06
   69.2399979       4.31328499E-06
   69.3600006       4.49561821E-06
   69.4800034       4.50527341E-06
   69.5999985       4.33060222E-06
   69.7200012       3.96846553E-06
   69.8399963       3.42473754E-06
   69.9599991       2.71443560E-06
   70.0800018       1.86144382E-06
   70.1999969       8.97811674E-07
   70.3199997      -1.37394551E-07
   70.4400024      -1.19968479E-06
   70.5599976      -2.24115206E-06
   70.6800003      -3.21283324E-06
   70.8000031      -4.06731533E-06
   70.9199982      -4.76145260E-06
   71.0400009      -5.25901532E-06
   71.1600037      -5.53308837E-06
   71.2799988      -5.56801115E-06
   71.4000015      -5.36069047E-06
   71.5199966      -4.92113622E-06
   71.6399994      -4.27213672E-06
   71.7600021      -3.44804448E-06
   71.8799973      -2.49274262E-06
   72.0000000      -1.45691172E-06
   72.1200027      -3.94807302E-07
   72.2399979       6.39201460E-07
   72.3600006       1.59405647E-06
   72.4800034       2.42512033E-06
   72.5999985       3.09672191E-06
   72.7200012       3.58395391E-06