  -30.0000000       0.00000000    
  -29.8799992       0.00000000    
  -29.7600002       0.00000000    
  -29.6399994       0.00000000    
  -29.5200005       0.00000000    
  -29.3999996       0.00000000    
  -29.2800007       0.00000000    
  -29.1599998      -1.35694234E-30
  -29.0400009      -1.23446475E-29
  -28.9200001      -5.60606850E-29
  -28.7999992      -1.72961280E-28
  -28.6800003      -4.22142562E-28
  -28.5599995      -8.56653447E-28
  -28.4400005      -1.13463871E-27
  -28.3199997       1.32450468E-27
  -28.2000008       1.60335779E-26
  -28.0799999       6.55550746E-26
  -27.9599991       1.83088995E-25
  -27.8400002       3.80964030E-25
  -27.7199993       5.73118689E-25
  -27.6000004       4.77341114E-25
  -27.4799995      -3.88452120E-25
  -27.3600006      -2.42081631E-24
  -27.2399998      -5.22301019E-24
  -27.1200008      -6.70365083E-24
  -27.0000000      -2.88046505E-24
  -26.8799992       1.01088186E-23
  -26.7600002       3.06152310E-23
  -26.6399994       4.38643582E-23
  -26.5200005       1.79747495E-23
  -26.3999996      -8.52442148E-23
  -26.2800007      -2.72830081E-22
  -26.1599998      -4.56407606E-22
  -26.0400009      -3.91494981E-22
  -25.9200001       3.04860611E-22
  -25.7999992       1.95235688E-21
  -25.6800003       4.35170390E-21
  -25.5599995       6.16779954E-21
  -25.4400005       4.54716692E-21
  -25.3199997      -4.30662862E-21
  -25.2000008      -2.28144588E-20
  -25.0799999      -4.77920853E-20
  -24.9599991      -6.57136125E-20
  -24.8400002      -5.11114965E-20
  -24.7199993       2.65795523E-20
  -24.6000004       1.83485578E-19
  -24.4799995       3.90720727E-19
  -24.3600006       5.45424595E-19
  -24.2399998       4.68336118E-19
  -24.1200008      -4.22336707E-20
  -24.0000000      -1.08367547E-18
  -23.8799992      -2.47221889E-18
  -23.7600002      -3.59683070E-18
  -23.6399994      -3.43635642E-18
  -23.5200005      -8.74137588E-19
  -23.3999996       4.64631196E-18
  -23.2800007       1.22754000E-17
  -23.1599998       1.91186487E-17
  -23.0400009       2.03758954E-17
  -22.9200001       1.07635761E-17
  -22.7999992      -1.27063247E-17
  -22.6800003      -4.72918645E-17
  -22.5599995      -8.19994729E-17
  -22.4400005      -9.80369631E-17
  -22.3199997      -7.39025725E-17
  -22.2000008       4.81991856E-18
  -22.0799999       1.33443715E-16
  -21.9599991       2.79040128E-16
  -21.8400002       3.80555942E-16
  -21.7199993       3.63131918E-16
  -21.6000004       1.66857139E-16
  -21.4799995      -2.16894446E-16
  -21.3600006      -7.15332294E-16
  -21.2399998      -1.16737678E-15
  -21.1200008      -1.35360312E-15
  -21.0000000      -1.06532477E-15
  -20.8799992      -1.98530070E-16
  -20.7600002       1.15792231E-15
  -20.6399994       2.67910634E-15
  -20.5200005       3.83995822E-15
  -20.3999996       4.04365652E-15
  -20.2800007       2.82348142E-15
  -20.1599998       6.52239986E-17
  -20.0400009      -3.82583776E-15
  -19.9200001      -7.89065485E-15
  -19.7999992      -1.07665867E-14
  -19.6800003      -1.10248402E-14
  -19.5599995      -7.63663221E-15
  -19.4400005      -4.52115482E-16
  -19.3199997       9.46009848E-15
  -19.2000008       1.97650446E-14
  -19.0799999       2.72122328E-14
  -18.9599991       2.84010079E-14
  -18.8400002       2.08494839E-14
  -18.7199993       4.11868881E-15
  -18.6000004      -1.93643065E-14
  -18.4799995      -4.41688414E-14
  -18.3600006      -6.26967418E-14
  -18.2399998      -6.70397575E-14
  -18.1200008      -5.15532644E-14
  -18.0000000      -1.54682531E-14
  -17.8799992       3.53865768E-14
  -17.7600002       8.86604700E-14
  -17.6399994       1.27878665E-13
  -17.5200005       1.36971841E-13
  -17.3999996       1.05881023E-13
  -17.2800007       3.54735332E-14
  -17.1599998      -6.02098192E-14
  -17.0400009      -1.55851677E-13
  -16.9200001      -2.21163420E-13
  -16.7999992      -2.30254861E-13
  -16.6800003      -1.71271485E-13
  -16.5599995      -5.28253453E-14
  -16.4400005       9.57203473E-14
  -16.3199997       2.31273280E-13
  -16.2000008       3.09941471E-13
  -16.0799999       3.02008445E-13
  -15.9600000       2.03718715E-13
  -15.8400002       4.10849333E-14
  -15.7200003      -1.36691317E-13
  -15.6000004      -2.72923177E-13
  -15.4799995      -3.23315024E-13
  -15.3599997      -2.72822644E-13
  -15.2399998      -1.42626755E-13
  -15.1199999       1.65357162E-14
  -15.0000000       1.43399263E-13
  -14.8800001       1.91078422E-13
  -14.7600002       1.48132984E-13
  -14.6400003       4.63747523E-14
  -14.5200005      -4.97367379E-14
  -14.3999996      -7.02157245E-14
  -14.2799997       2.60511929E-14
  -14.1599998       2.23530667E-13
  -14.0400000       4.42427209E-13
  -13.9200001       5.58719900E-13
  -13.8000002       4.49183171E-13
  -13.6800003       4.78977481E-14
  -13.5600004      -6.06509417E-13
  -13.4399996      -1.35393942E-12
  -13.3199997      -1.93940372E-12
  -13.1999998      -2.08218165E-12
  -13.0799999      -1.57068759E-12
  -12.9600000      -3.54135639E-13
  -12.8400002       1.40123048E-12
  -12.7200003       3.31608829E-12
  -12.6000004       4.87017067E-12
  -12.4799995       5.52955425E-12
  -12.3599997       4.89745570E-12
  -12.2399998       2.84685513E-12
  -12.1199999      -4.04639050E-13
  -12.0000000      -4.30331595E-12
  -11.8800001      -8.05507050E-12
  -11.7600002      -1.07886703E-11
  -11.6400003      -1.17486359E-11
  -11.5200005      -1.04715681E-11
  -11.3999996      -6.90374797E-12
  -11.2799997      -1.43276504E-12
  -11.1599998       5.17239073E-12
  -11.0400000       1.18957144E-11
  -10.9200001       1.76486412E-11
  -10.8000002       2.14430539E-11
  -10.6800003       2.25264096E-11
  -10.5600004       2.04588065E-11
  -10.4399996       1.51336860E-11
  -10.3199997       6.76368943E-12
  -10.1999998      -4.13696768E-12
  -10.0799999      -1.67481619E-11
  -9.96000004      -2.99131032E-11
  -9.84000015      -4.21059923E-11
  -9.72000027      -5.14482276E-11
  -9.60000038      -5.58310967E-11
  -9.47999954      -5.31844048E-11
  -9.35999966      -4.18867302E-11
  -9.23999977      -2.12550030E-11
  -9.11999989       8.00032436E-12
  -9.00000000       4.34921717E-11
  -8.88000011       8.11656575E-11
  -8.76000023       1.15658906E-10
  -8.64000034       1.40989886E-10
  -8.52000046       1.51457097E-10
  -8.39999962       1.42584042E-10
  -8.27999973       1.11925705E-10
  -8.15999985       5.95938576E-11
  -8.03999996      -1.15696472E-11
  -7.92000008      -9.61599828E-11
  -7.80000019      -1.86640634E-10
  -7.67999983      -2.73931738E-10
  -7.55999994      -3.48053586E-10
  -7.44000006      -3.98754363E-10
  -7.32000017      -4.16087276E-10
  -7.19999981      -3.90929095E-10
  -7.07999992      -3.15441756E-10
  -6.96000004      -1.83473473E-10
  -6.84000015       9.11418597E-12
  -6.71999979       2.64210820E-10
  -6.59999990       5.81328097E-10
  -6.48000002       9.57580681E-10
  -6.36000013       1.38777689E-09
  -6.23999977       1.86462290E-09
  -6.11999989       2.37905562E-09
  -6.00000000       2.92073743E-09
  -5.88000011       3.47874218E-09
  -5.76000023       4.04243750E-09
  -5.63999987       4.60251126E-09
  -5.51999998       5.15201970E-09
  -5.40000010       5.68727554E-09
  -5.28000021       6.20836937E-09
  -5.15999985       6.71915279E-09
  -5.03999996       7.22663129E-09
  -4.92000008       7.73983277E-09
  -4.80000019       8.26838331E-09
  -4.67999983       8.82111628E-09
  -4.55999994       9.40504830E-09
  -4.44000006       1.00249853E-08
  -4.32000017       1.06838325E-08
  -4.19999981       1.13834941E-08
  -4.07999992       1.21260815E-08
  -3.96000004       1.29150202E-08
  -3.83999991       1.37557485E-08
  -3.72000003       1.46557886E-08
  -3.59999990       1.56242201E-08
  -3.48000002       1.66707963E-08
  -3.35999990       1.78050623E-08
  -3.24000001       1.90358360E-08
  -3.11999989       2.03712744E-08
  -3.00000000       2.18194707E-08
  -2.88000011       2.33893189E-08
  -2.75999999       2.50911896E-08
  -2.64000010       2.69369487E-08
  -2.51999998       2.89390503E-08
  -2.40000010       3.11087263E-08
  -2.27999997       3.34536168E-08
  -2.16000009       3.59756100E-08
  -2.03999996       3.86696044E-08
  -1.91999996       4.15239647E-08
  -1.79999995       4.45229702E-08
  -1.67999995       4.76510813E-08
  -1.55999994       5.08983895E-08
  -1.44000006       5.42660672E-08
  -1.32000005       5.77705173E-08
  -1.20000005       6.14451636E-08
  -1.08000004       6.53391297E-08
 -0.959999979       6.95130353E-08
 -0.839999974       7.40324566E-08
 -0.720000029       7.89607171E-08
 -0.600000024       8.43524219E-08
 -0.479999989       9.02491948E-08
 -0.360000014       9.66784341E-08
 -0.239999995       1.03655033E-07
 -0.119999997       1.11185251E-07
  -1.11022302E-15   1.19271391E-07
  0.119999997       1.27915982E-07
  0.239999995       1.37124374E-07
  0.360000014       1.46905649E-07
  0.479999989       1.57272069E-07
  0.600000024       1.68238003E-07
  0.720000029       1.79819168E-07
  0.839999974       1.92032985E-07
  0.959999979       2.04899450E-07
   1.08000004       2.18442466E-07
   1.20000005       2.32690709E-07
   1.32000005       2.47677406E-07
   1.44000006       2.63439091E-07
   1.55999994       2.80013978E-07
   1.67999995       2.97440948E-07
   1.79999995       3.15760133E-07
   1.91999996       3.35014704E-07
   2.03999996       3.55254571E-07
   2.16000009       3.76539731E-07
   2.27999997       3.98942205E-07
   2.40000010       4.22545241E-07
   2.51999998       4.47439248E-07
   2.64000010       4.73715687E-07
   2.75999999       5.01459567E-07
   2.88000011       5.30744501E-07
   3.00000000       5.61629804E-07
   3.11999989       5.94162543E-07
   3.24000001       6.28382054E-07
   3.35999990       6.64327217E-07
   3.48000002       7.02043280E-07
   3.59999990       7.41585950E-07
   3.72000003       7.83022870E-07
   3.83999991       8.26431517E-07
   3.96000004       8.71895338E-07
   4.07999992       9.19499428E-07
   4.19999981       9.69328084E-07
   4.32000017       1.02146373E-06
   4.44000006       1.07599010E-06
   4.55999994       1.13299473E-06
   4.67999983       1.19257254E-06
   4.80000019       1.25482825E-06
   4.92000008       1.31987656E-06
   5.03999996       1.38783992E-06
   5.15999985       1.45884349E-06
   5.28000021       1.53301266E-06
   5.40000010       1.61046739E-06
   5.51999998       1.69131954E-06
   5.63999987       1.77567199E-06
   5.76000023       1.86361899E-06
   5.88000011       1.95524763E-06
   6.00000000       2.05064043E-06
   6.11999989       2.14987858E-06
   6.23999977       2.25304484E-06
   6.36000013       2.36022720E-06
   6.48000002       2.47151979E-06
   6.59999990       2.58702471E-06
   6.71999979       2.70685155E-06
   6.84000015       2.83111581E-06
   6.96000004       2.95993618E-06
   7.07999992       3.09343159E-06
   7.19999981       3.23171889E-06
   7.32000017       3.37491201E-06
   7.44000006       3.52312099E-06
   7.55999994       3.67645339E-06
   7.67999983       3.83501811E-06
   7.80000019       3.99892633E-06
   7.92000008       4.16829289E-06
   8.03999996       4.34323829E-06
   8.15999985       4.52388440E-06
   8.27999973       4.71035537E-06
   8.39999962       4.90276761E-06
   8.52000046       5.10122891E-06
   8.64000034       5.30582975E-06
   8.76000023       5.51664652E-06
   8.88000011       5.73373336E-06
   9.00000000       5.95712845E-06
   9.11999989       6.18685863E-06
   9.23999977       6.42294299E-06
   9.35999966       6.66539972E-06
   9.47999954       6.91425203E-06
   9.60000038       7.16952809E-06
   9.72000027       7.43126429E-06
   9.84000015       7.69949838E-06
   9.96000004       7.97426674E-06
   10.0799999       8.25560164E-06
   10.1999998       8.54352038E-06
   10.3199997       8.83802477E-06
   10.4399996       9.13909935E-06
   10.5600004       9.44671228E-06
   10.6800003       9.76081719E-06
   10.8000002       1.00813531E-05
   10.9200001       1.04082528E-05
   11.0400000       1.07414417E-05
   11.1599998       1.10808369E-05
   11.2799997       1.14263466E-05
   11.3999996       1.17778727E-05
   11.5200005       1.21353032E-05
   11.6400003       1.24985199E-05
   11.7600002       1.28673846E-05
   11.8800001       1.32417508E-05
   12.0000000       1.36214567E-05
   12.1199999       1.40063257E-05
   12.2399998       1.43961661E-05
   12.3599997       1.47907649E-05
   12.4799995       1.51898921E-05
   12.6000004       1.55932939E-05
   12.7200003       1.60006930E-05
   12.8400002       1.64117992E-05
   12.9600000       1.68263032E-05
   13.0799999       1.72438777E-05
   13.1999998       1.76641915E-05
   13.3199997       1.80869010E-05
   13.4399996       1.85116551E-05
   13.5600004       1.89380862E-05
   13.6800003       1.93658179E-05
   13.8000002       1.97944428E-05
   13.9200001       2.02235224E-05
   14.0400000       2.06525892E-05
   14.1599998       2.10811286E-05
   14.2799997       2.15085911E-05
   14.3999996       2.19343965E-05
   14.5200005       2.23579573E-05
   14.6400003       2.27786713E-05
   14.7600002       2.31959530E-05
   14.8800001       2.36092346E-05
   15.0000000       2.40179543E-05
   15.1199999       2.44215516E-05
   15.2399998       2.48194447E-05
   15.3599997       2.52110131E-05
   15.4799995       2.55955856E-05
   15.6000004       2.59724366E-05
   15.7200003       2.63407837E-05
   15.8400002       2.66998013E-05
   15.9600000       2.70486307E-05
   16.0799999       2.73864116E-05
   16.2000008       2.77122817E-05
   16.3199997       2.80254026E-05
   16.4400005       2.83249556E-05
   16.5599995       2.86101495E-05
   16.6800003       2.88802148E-05
   16.7999992       2.91343895E-05
   16.9200001       2.93719077E-05
   17.0400009       2.95919635E-05
   17.1599998       2.97937095E-05
   17.2800007       2.99762305E-05
   17.3999996       3.01385444E-05
   17.5200005       3.02796088E-05
   17.6399994       3.03983434E-05
   17.7600002       3.04936439E-05
   17.8799992       3.05644244E-05
   18.0000000       3.06096263E-05
   18.1200008       3.06282345E-05
   18.2399998       3.06192669E-05
   18.3600006       3.05817484E-05
   18.4799995       3.05147205E-05
   18.6000004       3.04171936E-05
   18.7199993       3.02881381E-05
   18.8400002       3.01264936E-05
   18.9599991       2.99311614E-05
   19.0799999       2.97010120E-05
   19.2000008       2.94348974E-05
   19.3199997       2.91316483E-05
   19.4400005       2.87900930E-05
   19.5599995       2.84090474E-05
   19.6800003       2.79873275E-05
   19.7999992       2.75237544E-05
   19.9200001       2.70171586E-05
   20.0400009       2.64663868E-05
   20.1599998       2.58702967E-05
   20.2800007       2.52277623E-05
   20.3999996       2.45376687E-05
   20.5200005       2.37989007E-05
   20.6399994       2.30103360E-05
   20.7600002       2.21708506E-05
   20.8799992       2.12793148E-05
   21.0000000       2.03345844E-05
   21.1200008       1.93355136E-05
   21.2399998       1.82809363E-05
   21.3600006       1.71696702E-05
   21.4799995       1.60005038E-05
   21.6000004       1.47722039E-05
   21.7199993       1.34835027E-05
   21.8400002       1.21331268E-05
   21.9599991       1.07197993E-05
   22.0799999       9.24226788E-06
   22.2000008       7.69931739E-06
   22.3199997       6.08977689E-06
   22.4400005       4.41251632E-06
   22.5599995       2.66643087E-06
   22.6800003       8.50416427E-07
   22.7999992      -1.03664718E-06
   22.9200001      -2.99591034E-06
   23.0400009      -5.02855937E-06
   23.1599998      -7.13580721E-06
   23.2800007      -9.31887735E-06
   23.3999996      -1.15789917E-05
   23.5200005      -1.39173526E-05
   23.6399994      -1.63351324E-05
   23.7600002      -1.88334816E-05
   23.8799992      -2.14135307E-05
   24.0000000      -2.40763929E-05
   24.1200008      -2.68231743E-05
   24.2399998      -2.96549642E-05
   24.3600006      -3.25728543E-05
   24.4799995      -3.55779193E-05
   24.6000004      -3.86712163E-05
   24.7199993      -4.18537966E-05
   24.8400002      -4.51267151E-05
   24.9599991      -4.84910051E-05
   25.0799999      -5.19477071E-05
   25.2000008      -5.54978615E-05
   25.3199997      -5.91424905E-05
   25.4400005      -6.28826310E-05
   25.5599995      -6.67192871E-05
   25.6800003      -7.06534556E-05
   25.7999992      -7.46861115E-05
   25.9200001      -7.88182078E-05
   26.0400009      -8.30506833E-05
   26.1599998      -8.73844183E-05
   26.2800007      -9.18202713E-05
   26.3999996      -9.63590574E-05
   26.5200005      -1.01001533E-04
   26.6399994      -1.05748404E-04
   26.7600002      -1.10600347E-04
   26.8799992      -1.15558032E-04
   27.0000000      -1.20622077E-04
   27.1200008      -1.25793129E-04
   27.2399998      -1.31071793E-04
   27.3600006      -1.36458679E-04
   27.4799995      -1.41954311E-04
   27.6000004      -1.47559229E-04
   27.7199993      -1.53273839E-04
   27.8400002      -1.59098505E-04
   27.9599991      -1.65033562E-04
   28.0799999      -1.71079257E-04
   28.2000008      -1.77235837E-04
   28.3199997      -1.83503478E-04
   28.4400005      -1.89882310E-04
   28.5599995      -1.96372406E-04
   28.6800003      -2.02973810E-04
   28.7999992      -2.09686434E-04
   28.9200001      -2.16510118E-04
   29.0400009      -2.23444629E-04
   29.1599998      -2.30489706E-04
   29.2800007      -2.37644985E-04
   29.3999996      -2.44910043E-04
   29.5200005      -2.52284401E-04
   29.6399994      -2.59767461E-04
   29.7600002      -2.67358555E-04
   29.8799992      -2.75056896E-04
   30.0000000      -2.82861642E-04
   30.1200008      -2.90771859E-04
   30.2399998      -2.98786472E-04
   30.3600006      -3.06904374E-04
   30.4799995      -3.15124285E-04
   30.6000004      -3.23444954E-04
   30.7199993      -3.31864896E-04
   30.8400002      -3.40382539E-04
   30.9599991      -3.48996226E-04
   31.0799999      -3.57704237E-04
   31.2000008      -3.66504653E-04
   31.3199997      -3.75395553E-04
   31.4400005      -3.84374784E-04
   31.5599995      -3.93440132E-04
   31.6800003      -4.02589212E-04
   31.7999992      -4.11819434E-04
   31.9200001      -4.21128178E-04
   32.0400009      -4.30512649E-04
   32.1599998      -4.39969939E-04
   32.2799988      -4.49497049E-04
   32.4000015      -4.59090865E-04
   32.5200005      -4.68748156E-04
   32.6399994      -4.78465634E-04
   32.7599983      -4.88239748E-04
   32.8800011      -4.98066889E-04
   33.0000000      -5.07943216E-04
   33.1199989      -5.17864653E-04
   33.2400017      -5.27827127E-04
   33.3600006      -5.37826330E-04
   33.4799995      -5.47857780E-04
   33.5999985      -5.57916879E-04
   33.7200012      -5.67999028E-04
   33.8400002      -5.78099338E-04
   33.9599991      -5.88212919E-04
   34.0800018      -5.98334533E-04
   34.2000008      -6.08458999E-04
   34.3199997      -6.18580729E-04
   34.4399986      -6.28694252E-04
   34.5600014      -6.38793863E-04
   34.6800003      -6.48873742E-04
   34.7999992      -6.58927951E-04
   34.9199982      -6.68950495E-04
   35.0400009      -6.78935146E-04
   35.1599998      -6.88875560E-04
   35.2799988      -6.98765332E-04
   35.4000015      -7.08597887E-04
   35.5200005      -7.18366296E-04
   35.6399994      -7.28063751E-04
   35.7599983      -7.37683382E-04
   35.8800011      -7.47217913E-04
   36.0000000      -7.56660418E-04
   36.1199989      -7.66003504E-04
   36.2400017      -7.75239838E-04
   36.3600006      -7.84361851E-04
   36.4799995      -7.93361978E-04
   36.5999985      -8.02232535E-04
   36.7200012      -8.10965896E-04
   36.8400002      -8.19554261E-04
   36.9599991      -8.27989890E-04
   37.0800018      -8.36264982E-04
   37.2000008      -8.44371505E-04
   37.3199997      -8.52301426E-04
   37.4399986      -8.60046712E-04
   37.5600014      -8.67599389E-04
   37.6800003      -8.74951249E-04
   37.7999992      -8.82094260E-04
   37.9199982      -8.89020390E-04
   38.0400009      -8.95721663E-04
   38.1599998      -9.02190164E-04
   38.2799988      -9.08418035E-04
   38.4000015      -9.14397300E-04
   38.5200005      -9.20120103E-04
   38.6399994      -9.25578643E-04
   38.7599983      -9.30765003E-04
   38.8800011      -9.35671502E-04
   39.0000000      -9.40290571E-04
   39.1199989      -9.44614760E-04
   39.2400017      -9.48636676E-04
   39.3600006      -9.52348986E-04
   39.4799995      -9.55744705E-04
   39.5999985      -9.58816905E-04
   39.7200012      -9.61558835E-04
   39.8400002      -9.63963743E-04
   39.9599991      -9.66025400E-04
   40.0800018      -9.67737578E-04
   40.2000008      -9.69094515E-04
   40.3199997      -9.70090332E-04
   40.4399986      -9.70719499E-04
   40.5600014      -9.70976893E-04
   40.6800003      -9.70857218E-04
   40.7999992      -9.70355701E-04
   40.9199982      -9.69467743E-04
   41.0400009      -9.68189153E-04
   41.1599998      -9.66515974E-04
   41.2799988      -9.64444887E-04
   41.4000015      -9.61972517E-04
   41.5200005      -9.59096127E-04
   41.6399994      -9.55813157E-04
   41.7599983      -9.52121452E-04
   41.8800011      -9.48019093E-04
   42.0000000      -9.43504565E-04
   42.1199989      -9.38576704E-04
   42.2400017      -9.33234813E-04
   42.3600006      -9.27478599E-04
   42.4799995      -9.21308238E-04
   42.5999985      -9.14724194E-04
   42.7200012      -9.07727634E-04
   42.8400002      -9.00319719E-04
   42.9599991      -8.92502605E-04
   43.0800018      -8.84278561E-04
   43.2000008      -8.75650265E-04
   43.3199997      -8.66620976E-04
   43.4399986      -8.57194304E-04
   43.5600014      -8.47374205E-04
   43.6800003      -8.37165222E-04
   43.7999992      -8.26572068E-04
   43.9199982      -8.15600390E-04
   44.0400009      -8.04255833E-04
   44.1599998      -7.92544743E-04
   44.2799988      -7.80473812E-04
   44.4000015      -7.68050435E-04
   44.5200005      -7.55282235E-04
   44.6399994      -7.42177246E-04
   44.7599983      -7.28744024E-04
   44.8800011      -7.14991358E-04
   45.0000000      -7.00928736E-04
   45.1199989      -6.86565880E-04
   45.2400017      -6.71913091E-04
   45.3600006      -6.56980847E-04
   45.4799995      -6.41780207E-04
   45.5999985      -6.26322581E-04
   45.7200012      -6.10619609E-04
   45.8400002      -5.94683341E-04
   45.9599991      -5.78525884E-04
   46.0800018      -5.62160043E-04
   46.2000008      -5.45598683E-04
   46.3199997      -5.28855016E-04
   46.4399986      -5.11942606E-04
   46.5600014      -4.94875188E-04
   46.6800003      -4.77666850E-04
   46.7999992      -4.60331852E-04
   46.9199982      -4.42884775E-04
   47.0400009      -4.25340375E-04
   47.1599998      -4.07713611E-04
   47.2799988      -3.90019530E-04
   47.4000015      -3.72273207E-04
   47.5200005      -3.54489952E-04
   47.6399994      -3.36684956E-04
   47.7599983      -3.18873586E-04
   47.8800011      -3.01071123E-04
   48.0000000      -2.83292873E-04
   48.1199989      -2.65554205E-04
   48.2400017      -2.47870368E-04
   48.3600006      -2.30256745E-04
   48.4799995      -2.12728526E-04
   48.5999985      -1.95300920E-04
   48.7200012      -1.77988986E-04
   48.8400002      -1.60807656E-04
   48.9599991      -1.43771686E-04
   49.0800018      -1.26895626E-04
   49.2000008      -1.10193789E-04
   49.3199997      -9.36802826E-05
   49.4399986      -7.73689244E-05
   49.5600014      -6.12732692E-05
   49.6800003      -4.54066212E-05
   49.7999992      -2.97819843E-05
   49.9199982      -1.44120368E-05
   50.0400009       6.90881450E-07
   50.1599998       1.55148300E-05
   50.2799988       3.00482679E-05
   50.4000015       4.42800701E-05
   50.5200005       5.81995482E-05
   50.6399994       7.17964649E-05
   50.7599983       8.50610013E-05
   50.8800011       9.79838005E-05
   51.0000000       1.10555957E-04
   51.1199989       1.22769066E-04
   51.2400017       1.34615155E-04
   51.3600006       1.46086822E-04
   51.4799995       1.57177172E-04
   51.5999985       1.67879800E-04
   51.7200012       1.78188930E-04
   51.8400002       1.88099293E-04
   51.9599991       1.97606205E-04
   52.0800018       2.06705561E-04
   52.2000008       2.15393884E-04
   52.3199997       2.23668205E-04
   52.4399986       2.31526152E-04
   52.5600014       2.38965949E-04
   52.6800003       2.45986361E-04
   52.7999992       2.52586673E-04
   52.9199982       2.58766755E-04
   53.0400009       2.64526985E-04
   53.1599998       2.69868237E-04
   53.2799988       2.74791993E-04
   53.4000015       2.79300206E-04
   53.5200005       2.83395319E-04
   53.6399994       2.87080446E-04
   53.7599983       2.90359167E-04
   53.8800011       2.93235644E-04
   54.0000000       2.95714533E-04
   54.1199989       2.97801074E-04
   54.2400017       2.99500854E-04
   54.3600006       3.00819956E-04
   54.4799995       3.01764929E-04
   54.5999985       3.02342814E-04
   54.7200012       3.02561006E-04
   54.8400002       3.02427245E-04
   54.9599991       3.01949680E-04
   55.0800018       3.01136723E-04
   55.2000008       2.99997104E-04
   55.3199997       2.98539904E-04
   55.4399986       2.96774495E-04
   55.5600014       2.94710539E-04
   55.6800003       2.92358047E-04
   55.7999992       2.89727381E-04
   55.9199982       2.86829047E-04
   56.0400009       2.83673755E-04
   56.1599998       2.80272390E-04
   56.2799988       2.76636012E-04
   56.4000015       2.72775709E-04
   56.5200005       2.68702715E-04
   56.6399994       2.64428440E-04
   56.7599983       2.59964349E-04
   56.8800011       2.55322026E-04
   57.0000000       2.50513112E-04
   57.1199989       2.45549250E-04
   57.2400017       2.40442110E-04
   57.3600006       2.35203261E-04
   57.4799995       2.29844169E-04
   57.5999985       2.24376272E-04
   57.7200012       2.18810921E-04
   57.8400002       2.13159350E-04
   57.9599991       2.07432691E-04
   58.0800018       2.01641960E-04
   58.2000008       1.95798013E-04
   58.3199997       1.89911618E-04
   58.4399986       1.83993325E-04
   58.5600014       1.78053568E-04
   58.6800003       1.72102576E-04
   58.7999992       1.66150305E-04
   58.9199982       1.60206531E-04
   59.0400009       1.54280700E-04
   59.1599998       1.48381980E-04
   59.2799988       1.42519231E-04
   59.4000015       1.36700968E-04
   59.5200005       1.30935427E-04
   59.6399994       1.25230581E-04
   59.7599983       1.19594071E-04
   59.8800011       1.14033312E-04
   60.0000000       1.08555440E-04
   60.1199989       1.03167229E-04
   60.2400017       9.78751123E-05
   60.3600006       9.26852299E-05
   60.4799995       8.76032864E-05
   60.5999985       8.26347168E-05
   60.7200012       7.77845780E-05
   60.8400002       7.30576357E-05
   60.9599991       6.84582847E-05
   61.0800018       6.39905556E-05
   61.2000008       5.96581121E-05
   61.3199997       5.54641992E-05
   61.4399986       5.14116728E-05
   61.5600014       4.75030538E-05
   61.6800003       4.37405542E-05
   61.7999992       4.01261314E-05
   61.9199982       3.66615095E-05
   62.0400009       3.33481330E-05
   62.1599998       3.01871569E-05
   62.2799988       2.71793815E-05
   62.4000015       2.43252307E-05
   62.5200005       2.16247499E-05
   62.6399994       1.90776482E-05
   62.7599983       1.66833561E-05
   62.8800011       1.44410797E-05
   63.0000000       1.23498312E-05
   63.1199989       1.04084338E-05
   63.2400017       8.61548961E-06
   63.3600006       6.96936104E-06
   63.4799995       5.46814545E-06
   63.5999985       4.10968369E-06
   63.7200012       2.89159175E-06
   63.8400002       1.81130213E-06
   63.9599991       8.66098048E-07
   64.0800018       5.31259126E-08
   64.1999969      -6.30614977E-07
   64.3199997      -1.18829541E-06
   64.4400024      -1.62327296E-06
   64.5599976      -1.93908818E-06
   64.6800003      -2.13943372E-06
   64.8000031      -2.22810309E-06
   64.9199982      -2.20894276E-06
   65.0400009      -2.08581491E-06
   65.1600037      -1.86259331E-06
   65.2799988      -1.54318559E-06
   65.4000015      -1.13156807E-06
   65.5199966      -6.31817727E-07
   65.6399994      -4.81191975E-08
   65.7600021       6.15257591E-07
   65.8799973       1.35400410E-06
   66.0000000       2.16383091E-06
   66.1200027       3.04050945E-06
   66.2399979       3.97988970E-06
   66.3600006       4.97788960E-06
   66.4800034       6.03045874E-06
   66.5999985       7.13353620E-06
   66.7200012       8.28302927E-06
   66.8399963       9.47481112E-06
   66.9599991       1.07047626E-05
   67.0800018       1.19688211E-05
   67.1999969       1.32630394E-05
   67.3199997       1.45836129E-05
   67.4400024       1.59268911E-05
   67.5599976       1.72893506E-05
   67.6800003       1.86675497E-05
   67.8000031       2.00581035E-05
   67.9199982       2.14576521E-05
   68.0400009       2.28628760E-05
   68.1600037       2.42705282E-05
   68.2799988       2.56774747E-05
   68.4000015       2.70807286E-05
   68.5199966       2.84774633E-05
   68.6399994       2.98649884E-05
   68.7600021       3.12407428E-05
   68.8799973       3.26022346E-05
   69.0000000       3.39470571E-05
   69.1200027       3.52728712E-05
   69.2399979       3.65774358E-05
   69.3600006       3.78586665E-05
   69.4800034       3.91146241E-05
   69.5999985       4.03435552E-05
   69.7200012       4.15438371E-05
   69.8399963       4.27139857E-05
   69.9599991       4.38525894E-05
   70.0800018       4.49583058E-05
   70.1999969       4.60298543E-05
   70.3199997       4.70660452E-05
   70.4400024       4.80657945E-05
   70.5599976       4.90281673E-05
   70.6800003       4.99523776E-05
   70.8000031       5.08377743E-05
   70.9199982       5.16838118E-05
   71.0400009       5.24900461E-05
   71.1600037       5.32560662E-05
   71.2799988       5.39815373E-05
   71.4000015       5.46661795E-05
   71.5199966       5.53097962E-05
   71.6399994       5.59122964E-05
   71.7600021       5.64737129E-05
   71.8799973       5.69941840E-05
   72.0000000       5.74739388E-05
   72.1200027       5.79132902E-05
   72.2399979       5.83125839E-05
   72.3600006       5.86722053E-05
   72.4800034       5.89925803E-05
   72.5999985       5.92741817E-05
   72.7200012       5.95175370E-05