  -30.0000000       0.00000000    
  -29.8799992       0.00000000    
  -29.7600002       0.00000000    
  -29.6399994       0.00000000    
  -29.5200005       0.00000000    
  -29.3999996       0.00000000    
  -29.2800007      -3.64337601E-44
  -29.1599998      -1.41531145E-43
  -29.0400009       1.32282575E-42
  -28.9200001       1.03990359E-41
  -28.7999992       3.29179022E-41
  -28.6800003       3.53169252E-41
  -28.5599995      -1.45862558E-40
  -28.4400005      -8.55456279E-40
  -28.3199997      -2.33946779E-39
  -28.2000008      -3.70777268E-39
  -28.0799999      -1.17355804E-39
  -27.9599991       1.29598052E-38
  -27.8400002       4.70441454E-38
  -27.7199993       9.84012969E-38
  -27.6000004       1.32988213E-37
  -27.4799995       6.69372699E-38
  -27.3600006      -2.24754149E-37
  -27.2399998      -8.38888469E-37
  -27.1200008      -1.69603409E-36
  -27.0000000      -2.34911092E-36
  -26.8799992      -1.87067345E-36
  -26.7600002       9.78652678E-37
  -26.6399994       7.10175802E-36
  -26.5200005       1.59134829E-35
  -26.3999996       2.40453611E-35
  -26.2800007       2.47556556E-35
  -26.1599998       9.20799938E-36
  -26.0400009      -2.94842538E-35
  -25.9200001      -8.97152097E-35
  -25.7999992      -1.54587494E-34
  -25.6800003      -1.89135227E-34
  -25.5599995      -1.46581207E-34
  -25.4400005       1.33650192E-35
  -25.3199997       2.96479076E-34
  -25.2000008       6.45975058E-34
  -25.0799999       9.30348861E-34
  -24.9599991       9.63612229E-34
  -24.8400002       5.66013571E-34
  -24.7199993      -3.43909171E-34
  -24.6000004      -1.65600724E-33
  -24.4799995      -3.01903886E-33
  -24.3600006      -3.87901564E-33
  -24.2399998      -3.62611869E-33
  -24.1200008      -1.82863666E-33
  -24.0000000       1.51529781E-33
  -23.8799992       5.80966226E-33
  -23.7600002       9.87449491E-33
  -23.6399994       1.21923699E-32
  -23.5200005       1.13547501E-32
  -23.3999996       6.58549845E-33
  -23.2800007      -1.83927691E-33
  -23.1599998      -1.24485542E-32
  -23.0400009      -2.28023408E-32
  -22.9200001      -3.00452212E-32
  -22.7999992      -3.16184206E-32
  -22.6800003      -2.58992468E-32
  -22.5599995      -1.25794808E-32
  -22.4400005       7.27086162E-33
  -22.3199997       3.13479511E-32
  -22.2000008       5.62712320E-32
  -22.0799999       7.76142891E-32
  -21.9599991       8.98745600E-32
  -21.8400002       8.67036816E-32
  -21.7199993       6.18634230E-32
  -21.6000004       1.12412584E-32
  -21.4799995      -6.42072999E-32
  -21.3600006      -1.55413495E-31
  -21.2399998      -2.43500410E-31
  -21.1200008      -3.01088302E-31
  -21.0000000      -2.97715715E-31
  -20.8799992      -2.09176563E-31
  -20.7600002      -2.87790757E-32
  -20.6399994       2.23113788E-31
  -20.5200005       4.95630031E-31
  -20.3999996       7.13583940E-31
  -20.2800007       7.94392876E-31
  -20.1599998       6.73099397E-31
  -20.0400009       3.29102942E-31
  -19.9200001      -1.94259787E-31
  -19.7999992      -7.86030973E-31
  -19.6800003      -1.28531609E-30
  -19.5599995      -1.51982175E-30
  -19.4400005      -1.35757325E-30
  -19.3199997      -7.58058957E-31
  -19.2000008       1.93605142E-31
  -19.0799999       1.28364209E-30
  -18.9599991       2.20465677E-30
  -18.8400002       2.62536488E-30
  -18.7199993       2.28125518E-30
  -18.6000004       1.06540818E-30
  -18.4799995      -9.02840599E-31
  -18.3600006      -3.24988303E-30
  -18.2399998      -5.37219726E-30
  -18.1200008      -6.51842575E-30
  -18.0000000      -5.93028775E-30
  -17.8799992      -3.03950113E-30
  -17.7600002       2.29148969E-30
  -17.6399994       9.51859729E-30
  -17.5200005       1.72238533E-29
  -17.3999996       2.30905895E-29
  -17.2800007       2.41766695E-29
  -17.1599998       1.75891074E-29
  -17.0400009       1.56088864E-30
  -16.9200001      -2.32492621E-29
  -16.7999992      -5.26322469E-29
  -16.6800003      -7.84524253E-29
  -16.5599995      -8.96149828E-29
  -16.4400005      -7.47417661E-29
  -16.3199997      -2.64046049E-29
  -16.2000008       5.39639552E-29
  -16.0799999       1.52101822E-28
  -15.9600000       2.39959941E-28
  -15.8400002       2.79663204E-28
  -15.7200003       2.33295935E-28
  -15.6000004       7.75747248E-29
  -15.4799995      -1.79895687E-28
  -15.3599997      -4.88320115E-28
  -15.2399998      -7.52082528E-28
  -15.1199999      -8.45690187E-28
  -15.0000000      -6.47725003E-28
  -14.8800001      -9.01445534E-29
  -14.7600002       7.88421938E-28
  -14.6400003       1.80389956E-27
  -14.5200005       2.62468217E-27
  -14.3999996       2.82540818E-27
  -14.2799997       2.00396708E-27
  -14.1599998      -5.13553252E-29
  -14.0400000      -3.18335439E-27
  -13.9200001      -6.73840671E-27
  -13.8000002      -9.56408105E-27
  -13.6800003      -1.01953439E-26
  -13.5600004      -7.25301057E-27
  -13.4399996      -9.79675348E-30
  -13.3199997       1.10058492E-26
  -13.1999998       2.35761127E-26
  -13.0799999       3.37771134E-26
  -12.9600000       3.65916366E-26
  -12.8400002       2.72337896E-26
  -12.7200003       3.04439123E-27
  -12.6000004      -3.44643161E-26
  -12.4799995      -7.80968845E-26
  -12.3599997      -1.14814169E-25
  -12.2399998      -1.27644560E-25
  -12.1199999      -9.99781912E-26
  -12.0000000      -2.18357731E-26
  -11.8800001       1.03214555E-25
  -11.7600002       2.52696282E-25
  -11.6400003       3.84124527E-25
  -11.5200005       4.40634430E-25
  -11.3999996       3.64564573E-25
  -11.2799997       1.17944418E-25
  -11.1599998      -2.94153339E-25
  -11.0400000      -8.04404867E-25
  -10.9200001      -1.27705951E-24
  -10.8000002      -1.52328735E-24
  -10.6800003      -1.34293205E-24
  -10.5600004      -5.90495273E-25
  -10.4399996       7.46457955E-25
  -10.3199997       2.47830416E-24
  -10.1999998       4.18267344E-24
  -10.0799999       5.24119738E-24
  -9.96000004       4.96294523E-24
  -9.84000015       2.79253901E-24
  -9.72000027      -1.42961830E-24
  -9.60000038      -7.22109625E-24
  -9.47999954      -1.33175498E-23
  -9.35999966      -1.77381086E-23
  -9.23999977      -1.81303744E-23
  -9.11999989      -1.24076666E-23
  -9.00000000       4.03527769E-25
  -8.88000011       1.92983966E-23
  -8.76000023       4.06991643E-23
  -8.64000034       5.84607588E-23
  -8.52000046       6.47550295E-23
  -8.39999962       5.19421456E-23
  -8.27999973       1.52537458E-23
  -8.15999985      -4.42426675E-23
  -8.03999996      -1.17266597E-22
  -7.92000008      -1.85604254E-22
  -7.80000019      -2.24048917E-22
  -7.67999983      -2.05575890E-22
  -7.55999994      -1.09510681E-22
  -7.44000006       6.86528038E-23
  -7.32000017       3.08281111E-22
  -7.19999981       5.58822098E-22
  -7.07999992       7.42690000E-22
  -6.96000004       7.68335073E-22
  -6.84000015       5.53816656E-22
  -6.71999979       5.79204143E-23
  -6.59999990      -6.87908974E-22
  -6.48000002      -1.55679743E-21
  -6.36000013      -2.32426887E-21
  -6.23999977      -2.69651610E-21
  -6.11999989      -2.37352449E-21
  -6.00000000      -1.14223485E-21
  -5.88000011       1.01674240E-21
  -5.76000023       3.83683850E-21
  -5.63999987       6.72318508E-21
  -5.51999998       8.79531290E-21
  -5.40000010       9.03828832E-21
  -5.28000021       6.56167443E-21
  -5.15999985       9.31698195E-22
  -5.03999996      -7.49556982E-21
  -4.92000008      -1.73430419E-20
  -4.80000019      -2.61983012E-20
  -4.67999983      -3.09121143E-20
  -4.55999994      -2.82494458E-20
  -4.44000006      -1.58408642E-20
  -4.32000017       6.73146617E-21
  -4.19999981       3.69882050E-20
  -4.07999992       6.90928068E-20
  -3.96000004       9.42153289E-20
  -3.83999991       1.01946049E-19
  -3.72000003       8.27587547E-20
  -3.59999990       3.12072821E-20
  -3.48000002      -5.08084608E-20
  -3.35999990      -1.51654789E-19
  -3.24000001      -2.49514250E-19
  -3.11999989      -3.14769391E-19
  -3.00000000      -3.15620482E-19
  -2.88000011      -2.26529046E-19
  -2.75999999      -3.80794243E-20
  -2.64000010       2.34111319E-19
  -2.51999998       5.44428928E-19
  -2.40000010       8.19201215E-19
  -2.27999997       9.67567018E-19
  -2.16000009       9.01406838E-19
  -2.03999996       5.61816781E-19
  -1.91999996      -5.32858603E-20
  -1.79999995      -8.68195846E-19
  -1.67999995      -1.72376230E-18
  -1.55999994      -2.39433363E-18
  -1.44000006      -2.63048543E-18
  -1.32000005      -2.22407774E-18
  -1.20000005      -1.08409278E-18
  -1.08000004       6.95935432E-19
 -0.959999979       2.80273442E-18
 -0.839999974       4.72325051E-18
 -0.720000029       5.83421488E-18
 -0.600000024       5.55950489E-18
 -0.479999989       3.57131797E-18
 -0.360000014      -1.23823243E-20
 -0.239999995      -4.49973721E-18
 -0.119999997      -8.63649434E-18
  -1.11022302E-15  -1.08117072E-17
  0.119999997      -9.47245465E-18
  0.239999995      -3.70075478E-18
  0.360000014       6.16755708E-18
  0.479999989       1.80698068E-17
  0.600000024       2.81150121E-17
  0.720000029       3.10632492E-17
  0.839999974       2.15053973E-17
  0.959999979      -4.30534150E-18
   1.08000004      -4.62487798E-17
   1.20000005      -9.82888628E-17
   1.32000005      -1.47313072E-16
   1.44000006      -1.73668330E-16
   1.55999994      -1.54069629E-16
   1.67999995      -6.71610770E-17
   1.79999995       9.86503209E-17
   1.91999996       3.36324358E-16
   2.03999996       6.12408050E-16
   2.16000009       8.63163684E-16
   2.27999997       9.97630747E-16
   2.40000010       9.10099632E-16
   2.51999998       5.02993363E-16
   2.64000010      -2.81267375E-16
   2.75999999      -1.42395143E-15
   2.88000011      -2.79706479E-15
   3.00000000      -4.14419170E-15
   3.11999989      -5.08658616E-15
   3.24000001      -5.16445263E-15
   3.35999990      -3.91860820E-15
   3.48000002      -1.00964697E-15
   3.59999990       3.63904201E-15
   3.72000003       9.69988843E-15
   3.83999991       1.63372903E-14
   3.96000004       2.21831034E-14
   4.07999992       2.54314036E-14
   4.19999981       2.40801404E-14
   4.32000017       1.63235988E-14
   4.44000006       1.06541572E-15
   4.55999994      -2.15184333E-14
   4.67999983      -4.94770749E-14
   4.80000019      -7.87824057E-14
   4.92000008      -1.03375892E-13
   5.03999996      -1.15691595E-13
   5.15999985      -1.07725020E-13
   5.28000021      -7.26219486E-14
   5.40000010      -6.63774743E-15
   5.51999998       8.88186009E-14
   5.63999987       2.05464579E-13
   5.76000023       3.27235797E-13
   5.88000011       4.30679309E-13
   6.00000000       4.87038415E-13
   6.11999989       4.66202272E-13
   6.23999977       3.42368955E-13
   6.36000013       1.00865646E-13
   6.48000002      -2.54853403E-13
   6.59999990      -6.97375155E-13
   6.71999979      -1.17221966E-12
   6.84000015      -1.59898451E-12
   6.96000004      -1.87792859E-12
   7.07999992      -1.90250506E-12
   7.19999981      -1.57736129E-12
   7.32000017      -8.40128043E-13
   7.44000006       3.15923774E-13
   7.55999994       1.82233547E-12
   7.67999983       3.52361911E-12
   7.80000019       5.17766342E-12
   7.92000008       6.47202040E-12
   8.03999996       7.05785820E-12
   8.15999985       6.60069655E-12
   8.27999973       4.84378336E-12
   8.39999962       1.67655505E-12
   8.52000046      -2.80235709E-12
   8.64000034      -8.24003626E-12
   8.76000023      -1.40148284E-11
   8.88000011      -1.92633826E-11
   9.00000000      -2.29558456E-11
   9.11999989      -2.40194548E-11
   9.23999977      -2.15027978E-11
   9.35999966      -1.47643096E-11
   9.47999954      -3.66052804E-12
   9.60000038       1.12963042E-11
   9.72000027       2.88441788E-11
   9.84000015       4.69713296E-11
   9.96000004       6.30332592E-11
   10.0799999       7.39967254E-11
   10.1999998       7.68032790E-11
   10.3199997       6.88251817E-11
   10.4399996       4.83661652E-11
   10.5600004       1.51429945E-11
   10.6800003      -2.93275959E-11
   10.8000002      -8.15138720E-11
   10.9200001      -1.35894546E-10
   11.0400000      -1.85272894E-10
   11.1599998      -2.21396707E-10
   11.2799997      -2.35862330E-10
   11.3999996      -2.21236918E-10
   11.5200005      -1.72291376E-10
   11.6400003      -8.72010172E-11
   11.7600002       3.14518168E-11
   11.8800001       1.76043333E-10
   12.0000000       3.33795686E-10
   12.1199999       4.87300922E-10
   12.2399998       6.15737350E-10
   12.3599997       6.96757041E-10
   12.4799995       7.08939574E-10
   12.6000004       6.34618968E-10
   12.7200003       4.62815536E-10
   12.8400002       1.91946403E-10
   12.9600000      -1.68041608E-10
   13.0799999      -5.94465144E-10
   13.1999998      -1.05192699E-09
   13.3199997      -1.49378432E-09
   13.4399996      -1.86515958E-09
   13.5600004      -2.10743534E-09
   13.6800003      -2.16400942E-09
   13.8000002      -1.98692218E-09
   13.9200001      -1.54379787E-09
   14.0400000      -8.24435631E-10
   14.1599998       1.53699373E-10
   14.2799997       1.34184353E-09
   14.3999996       2.65885380E-09
   14.5200005       3.99323152E-09
   14.6400003       5.20858823E-09
   14.7600002       6.15259355E-09
   14.8800001       6.66912392E-09
   15.0000000       6.61295907E-09
   15.1199999       5.86601967E-09
   15.2399998       4.35385505E-09
   15.3599997       2.06083195E-09
   15.4799995      -9.57593671E-10
   15.6000004      -4.56712623E-09
   15.7200003      -8.55278692E-09
   15.8400002      -1.26239996E-08
   15.9600000      -1.64271139E-08
   16.0799999      -1.95652774E-08
   16.2000008      -2.16248530E-08
   16.3199997      -2.22069492E-08
   16.4400005      -2.09620268E-08
   16.5599995      -1.76251262E-08
   16.6800003      -1.20490036E-08
   16.7999992      -4.23253965E-09
   16.9200001       5.65802205E-09
   17.0400009       1.72768697E-08
   17.1599998       3.00966967E-08
   17.2800007       4.34175256E-08
   17.3999996       5.63860105E-08
   17.5200005       6.80243346E-08
   17.6399994       7.72674369E-08
   17.7600002       8.30072295E-08
   17.8799992       8.41426342E-08
   18.0000000       7.96347592E-08
   18.1200008       6.85674095E-08
   18.2399998       5.02135116E-08
   18.3600006       2.41091467E-08
   18.4799995      -9.86346027E-09
   18.6000004      -5.13823508E-08
   18.7199993      -9.95813139E-08
   18.8400002      -1.52935826E-07
   18.9599991      -2.09143067E-07
   19.0799999      -2.65002996E-07
   19.2000008      -3.16310548E-07
   19.3199997      -3.57772677E-07
   19.4400005      -3.82966022E-07
   19.5599995      -3.84354081E-07
   19.6800003      -3.53381040E-07
   19.7999992      -2.80659862E-07
   19.9200001      -1.56266751E-07
   20.0400009       2.98512219E-08
   20.1599998       2.87356215E-07
   20.2800007       6.24899144E-07
   20.3999996       1.04941978E-06
   20.5200005       1.56540023E-06
   20.6399994       2.17411434E-06
   20.7600002       2.87292346E-06
   20.8799992       3.65467326E-06
   21.0000000       4.50724883E-06
   21.1200008       5.41334384E-06
   21.2399998       6.35048809E-06
   21.3600006       7.29136445E-06
   21.4799995       8.20444257E-06
   21.6000004       9.05492288E-06
   21.7199993       9.80596906E-06
   21.8400002       1.04201836E-05
   21.9599991       1.08612767E-05
   22.0799999       1.10958317E-05
   22.2000008       1.10950914E-05
   22.3199997       1.08366421E-05
   22.4400005       1.03059210E-05
   22.5599995       9.49742662E-06
   22.6800003       8.41556630E-06
   22.7999992       7.07505706E-06
   22.9200001       5.50084997E-06
   23.0400009       3.72755699E-06
   23.1599998       1.79839026E-06
   23.2800007      -2.36342586E-07
   23.3999996      -2.32112279E-06
   23.5200005      -4.39739233E-06
   23.6399994      -6.40590542E-06
   23.7600002      -8.28914017E-06
   23.8799992      -9.99364693E-06
   24.0000000      -1.14722116E-05
   24.1200008      -1.26857203E-05
   24.2399998      -1.36046447E-05
   24.3600006      -1.42100635E-05
   24.4799995      -1.44941760E-05
   24.6000004      -1.44603164E-05
   24.7199993      -1.41224573E-05
   24.8400002      -1.35042537E-05
   24.9599991      -1.26376945E-05
   25.0799999      -1.15614539E-05
   25.2000008      -1.03190341E-05
   25.3199997      -8.95679932E-06
   25.4400005      -7.52202504E-06
   25.5599995      -6.06104095E-06
   25.6800003      -4.61757372E-06
   25.7999992      -3.23133600E-06
   25.9200001      -1.93692972E-06
   26.0400009      -7.63067419E-07
   26.1599998       2.67867307E-07
   26.2800007       1.13995520E-06
   26.3999996       1.84359828E-06
   26.5200005       2.37515087E-06
   26.6399994       2.73637966E-06
   26.7600002       2.93381299E-06
   26.8799992       2.97803490E-06
   27.0000000       2.88297338E-06
   27.1200008       2.66522147E-06
   27.2399998       2.34341587E-06
   27.3600006       1.93768665E-06
   27.4799995       1.46917534E-06
   27.6000004       9.59607860E-07
   27.7199993       4.30903327E-07
   27.8400002      -9.52064525E-08
   27.9599991      -5.97571443E-07
   28.0799999      -1.05605159E-06
   28.2000008      -1.45199124E-06
   28.3199997      -1.76874153E-06
   28.4400005      -1.99221927E-06
   28.5599995      -2.11148131E-06
   28.6800003      -2.11927863E-06
   28.7999992      -2.01255148E-06
   28.9200001      -1.79281335E-06
   29.0400009      -1.46638240E-06
   29.1599998      -1.04441267E-06
   29.2800007      -5.42695318E-07
   29.3999996       1.87921554E-08
   29.5200005       6.16590341E-07
   29.6399994       1.22469976E-06
   29.7600002       1.81572500E-06
   29.8799992       2.36216647E-06
   30.0000000       2.83779332E-06
   30.1200008       3.21901462E-06
   30.2399998       3.48616982E-06
   30.3600006       3.62464948E-06
   30.4799995       3.62577498E-06
   30.6000004       3.48737149E-06
   30.7199993       3.21399102E-06
   30.8400002       2.81676603E-06
   30.9599991       2.31288936E-06
   31.0799999       1.72475404E-06
   31.2000008       1.07879612E-06
   31.3199997       4.04115013E-07
   31.4400005      -2.69050986E-07
   31.5599995      -9.10897882E-07
   31.6800003      -1.49358493E-06
   31.7999992      -1.99262968E-06
   31.9200001      -2.38809025E-06
   32.0400009      -2.66546567E-06
   32.1599998      -2.81627808E-06
   32.2799988      -2.83830582E-06
   32.4000015      -2.73546766E-06
   32.5200005      -2.51738516E-06
   32.6399994      -2.19865638E-06
   32.7599983      -1.79790152E-06
   32.8800011      -1.33664400E-06
   33.0000000      -8.38103631E-07
   33.1199989      -3.25973076E-07
   33.2400017       1.76751087E-07
   33.3600006       6.48823004E-07
   33.4799995       1.07163658E-06
   33.5999985       1.42991496E-06
   33.7200012       1.71218096E-06
   33.8400002       1.91100185E-06
   33.9599991       2.02301931E-06
   34.0800018       2.04878779E-06
   34.2000008       1.99244641E-06
   34.3199997       1.86126920E-06
   34.4399986       1.66512473E-06
   34.5600014       1.41588907E-06
   34.6800003       1.12684393E-06
   34.7999992       8.12087649E-07
   34.9199982       4.85982525E-07
   35.0400009       1.62649755E-07
   35.1599998      -1.44479827E-07
   35.2799988      -4.23060101E-07
   35.4000015      -6.62170976E-07
   35.5200005      -8.52613312E-07
   35.6399994      -9.87160320E-07
   35.7599983      -1.06077050E-06
   35.8800011      -1.07075891E-06
   36.0000000      -1.01692342E-06
   36.1199989      -9.01614897E-07
   36.2400017      -7.29738417E-07
   36.3600006      -5.08671917E-07
   36.4799995      -2.48085541E-07
   36.5999985       4.03472598E-08
   36.7200012       3.43354657E-07
   36.8400002       6.46584226E-07
   36.9599991       9.35222715E-07
   37.0800018       1.19469655E-06
   37.2000008       1.41142152E-06
   37.3199997       1.57356260E-06
   37.4399986       1.67175779E-06
   37.5600014       1.69975829E-06
   37.6800003       1.65493611E-06
   37.7999992       1.53861606E-06
   37.9199982       1.35619905E-06
   38.0400009       1.11704958E-06
   38.1599998       8.34143407E-07
   38.2799988       5.23478377E-07
   38.4000015       2.03275292E-07
   38.5200005      -1.06993774E-07
   38.6399994      -3.87696076E-07
   38.7599983      -6.20185403E-07
   38.8800011      -7.87935733E-07
   39.0000000      -8.77590651E-07
   39.1199989      -8.79860238E-07
   39.2400017      -7.90205945E-07
   39.3600006      -6.09263623E-07
   39.4799995      -3.42974317E-07
   39.5999985      -2.40726949E-09
   39.7200012       3.96718633E-07
   39.8400002       8.34790399E-07
   39.9599991       1.28928968E-06
   40.0800018       1.73595879E-06
   40.2000008       2.15007185E-06
   40.3199997       2.50773792E-06
   40.4399986       2.78715947E-06
   40.5600014       2.96977078E-06
   40.6800003       3.04119908E-06
   40.7999992       2.99199155E-06
   40.9199982       2.81808047E-06
   41.0400009       2.52096766E-06
   41.1599998       2.10763301E-06
   41.2799988       1.59018691E-06
   41.4000015       9.85301199E-07
   41.5200005       3.13463374E-07
   41.6399994      -4.01892549E-07
   41.7599983      -1.13532496E-06
   41.8800011      -1.86034504E-06
   42.0000000      -2.55035343E-06
   42.1199989      -3.17951822E-06
   42.2400017      -3.72357567E-06
   42.3600006      -4.16053490E-06
   42.4799995      -4.47129059E-06
   42.5999985      -4.64014965E-06
   42.7200012      -4.65527592E-06
   42.8400002      -4.50907191E-06
   42.9599991      -4.19850130E-06
   43.0800018      -3.72535897E-06
   43.2000008      -3.09648203E-06
   43.3199997      -2.32389289E-06
   43.4399986      -1.42484635E-06
   43.5600014      -4.21757250E-07
   43.6800003       6.58026238E-07
   43.7999992       1.78263883E-06
   43.9199982       2.91633296E-06
   44.0400009       4.02035221E-06
   44.1599998       5.05404932E-06
   44.2799988       5.97624512E-06
   44.4000015       6.74678950E-06
   44.5200005       7.32827630E-06
   44.6399994       7.68784594E-06
   44.7599983       7.79897528E-06
   44.8800011       7.64316064E-06
   45.0000000       7.21138213E-06
   45.1199989       6.50523543E-06
   45.2400017       5.53762948E-06
   45.3600006       4.33297555E-06
   45.4799995       2.92679829E-06
   45.5999985       1.36474318E-06
   45.7200012      -2.99001357E-07
   45.8400002      -2.00382806E-06
   45.9599991      -3.68528617E-06
   46.0800018      -5.27798784E-06
   46.2000008      -6.71869293E-06
   46.3199997      -7.94940206E-06
   46.4399986      -8.92027765E-06
   46.5600014      -9.59221052E-06
   46.6800003      -9.93888443E-06
   46.7999992      -9.94818947E-06
   46.9199982      -9.62289869E-06
   47.0400009      -8.98054986E-06
   47.1599998      -8.05253239E-06
   47.2799988      -6.88242653E-06
   47.4000015      -5.52369193E-06
   47.5200005      -4.03683589E-06
   47.6399994      -2.48623928E-06
   47.7599983      -9.36824677E-07
   47.8800011       5.49232141E-07
   48.0000000       1.91555500E-06
   48.1199989       3.11420627E-06
   48.2400017       4.10776511E-06
   48.3600006       4.87073839E-06
   48.4799995       5.39024086E-06
   48.5999985       5.66592144E-06
   48.7200012       5.70918291E-06
   48.8400002       5.54175904E-06
   48.9599991       5.19377363E-06
   49.0800018       4.70142277E-06
   49.2000008       4.10445091E-06
   49.3199997       3.44358386E-06
   49.4399986       2.75809703E-06
   49.5600014       2.08365486E-06
   49.6800003       1.45055844E-06
   49.7999992       8.82484130E-07
   49.9199982       3.95764005E-07
   50.0400009      -7.80605025E-10
   50.1599998      -3.05484434E-07
   50.2799988      -5.23028689E-07
   50.4000015      -6.63273227E-07
   50.5200005      -7.39845632E-07
   50.6399994      -7.68614427E-07
   50.7599983      -7.66171752E-07
   50.8800011      -7.48440129E-07
   51.0000000      -7.29499163E-07
   51.1199989      -7.20701678E-07
   51.2400017      -7.30118245E-07
   51.3600006      -7.62317370E-07
   51.4799995      -8.18460705E-07
   51.5999985      -8.96664574E-07
   51.7200012      -9.92563059E-07
   51.8400002      -1.09999439E-06
   51.9599991      -1.21173366E-06
   52.0800018      -1.32019375E-06
   52.2000008      -1.41803878E-06
   52.3199997      -1.49866162E-06
   52.4399986      -1.55650707E-06
   52.5600014      -1.58723674E-06
   52.6800003      -1.58775367E-06
   52.7999992      -1.55611963E-06
   52.9199982      -1.49140624E-06
   53.0400009      -1.39352267E-06
   53.1599998      -1.26306338E-06
   53.2799988      -1.10120550E-06
   53.4000015      -9.09676771E-07
   53.5200005      -6.90797833E-07
   53.6399994      -4.47588349E-07
   53.7599983      -1.83912974E-07
   53.8800011       9.53659836E-08
   54.0000000       3.84268219E-07
   54.1199989       6.75644344E-07
   54.2400017       9.61226647E-07
   54.3600006       1.23180371E-06
   54.4799995       1.47752530E-06
   54.5999985       1.68833242E-06
   54.7200012       1.85448766E-06
   54.8400002       1.96716996E-06
   54.9599991       2.01908961E-06
   55.0800018       2.00506838E-06
   55.2000008       1.92253447E-06
   55.3199997       1.77188474E-06
   55.4399986       1.55667499E-06
   55.5600014       1.28361444E-06
   55.6800003       9.62353397E-07
   55.7999992       6.05077389E-07
   55.9199982       2.25926129E-07
   56.0400009      -1.59719193E-07
   56.1599998      -5.36033156E-07
   56.2799988      -8.87571787E-07
   56.4000015      -1.20007030E-06
   56.5200005      -1.46115826E-06
   56.6399994      -1.66094878E-06
   56.7599983      -1.79246547E-06
   56.8800011      -1.85189026E-06
   57.0000000      -1.83862198E-06
   57.1199989      -1.75515697E-06
   57.2400017      -1.60681327E-06
   57.3600006      -1.40132568E-06
   57.4799995      -1.14835223E-06
   57.5999985      -8.58928615E-07
   57.7200012      -5.44909085E-07
   57.8400002      -2.18428369E-07
   57.9599991       1.08591699E-07
   58.0800018       4.24870848E-07
   58.2000008       7.20126536E-07
   58.3199997       9.85355314E-07
   58.4399986       1.21304390E-06
   58.5600014       1.39731844E-06
   58.6800003       1.53403960E-06
   58.7999992       1.62085348E-06
   58.9199982       1.65720019E-06
   59.0400009       1.64428445E-06
   59.1599998       1.58500188E-06
   59.2799988       1.48381741E-06
   59.4000015       1.34658842E-06
   59.5200005       1.18032585E-06
   59.6399994       9.92892296E-07
   59.7599983       7.92640265E-07
   59.8800011       5.88002365E-07
   60.0000000       3.87052381E-07
   60.1199989       1.97063102E-07
   60.2400017       2.40931790E-08
   60.3600006      -1.27363691E-07
   60.4799995      -2.54634784E-07
   60.5999985      -3.57002392E-07
   60.7200012      -4.35697245E-07
   60.8400002      -4.93744835E-07
   60.9599991      -5.35670665E-07
   61.0800018      -5.67083362E-07
   61.2000008      -5.94167716E-07
   61.3199997      -6.23126141E-07
   61.4399986      -6.59615239E-07
   61.5600014      -7.08222444E-07
   61.6800003      -7.72025203E-07
   61.7999992      -8.52267021E-07
   61.9199982      -9.48174204E-07
   62.0400009      -1.05692334E-06
   62.1599998      -1.17375839E-06
   62.2799988      -1.29224361E-06
   62.4000015      -1.40462589E-06
   62.5200005      -1.50227936E-06
   62.6399994      -1.57619809E-06
   62.7599983      -1.61750359E-06
   62.8800011      -1.61793889E-06
   63.0000000      -1.57032730E-06
   63.1199989      -1.46897935E-06
   63.2400017      -1.31003776E-06
   63.3600006      -1.09176017E-06
   63.4799995      -8.14735813E-07
   63.5999985      -4.82040775E-07
   63.7200012      -9.93283820E-08
   63.8400002       3.25146431E-07
   63.9599991       7.80579342E-07
   64.0800018       1.25375686E-06
   64.1999969       1.72930265E-06
   64.3199997       2.19004369E-06
   64.4400024       2.61751484E-06
   64.5599976       2.99260205E-06
   64.6800003       3.29632780E-06
   64.8000031       3.51075164E-06
   64.9199982       3.61995558E-06
   65.0400009       3.61105913E-06
   65.1600037       3.47520017E-06
   65.2799988       3.20840104E-06
   65.4000015       2.81224266E-06
   65.5199966       2.29426928E-06
   65.6399994       1.66806183E-06
   65.7600021       9.52936432E-07
   65.8799973       1.73257263E-07
   66.0000000      -6.42618943E-07
   66.1200027      -1.46371190E-06
   66.2399979      -2.25801477E-06
   66.3600006      -2.99420890E-06
   66.4800034      -3.64336711E-06
   66.5999985      -4.18051559E-06
   66.7200012      -4.58593149E-06
   66.8399963      -4.84607244E-06
   66.9599991      -4.95407039E-06
   67.0800018      -4.90976299E-06
   67.1999969      -4.71926569E-06
   67.3199997      -4.39415862E-06
   67.4400024      -3.95036614E-06
   67.5599976      -3.40685324E-06
   67.6800003      -2.78427342E-06
   67.8000031      -2.10369831E-06
   67.9199982      -1.38554333E-06
   68.0400009      -6.48778780E-07
   68.1600037       8.95253720E-08
   68.2799988       8.14316024E-07
   68.4000015       1.51236839E-06
   68.5199966       2.17186880E-06
   68.6399994       2.78187008E-06
   68.7600021       3.33173239E-06
   68.8799973       3.81067343E-06
   69.0000000       4.20752167E-06
   69.1200027       4.51075584E-06
   69.2399979       4.70885789E-06
   69.3600006       4.79098890E-06
   69.4800034       4.74791841E-06
   69.5999985       4.57313809E-06
   69.7200012       4.26402721E-06
   69.8399963       3.82292865E-06
   69.9599991       3.25800170E-06
   70.0800018       2.58370824E-06
   70.1999969       1.82083750E-06
   70.3199997       9.96005269E-07
   70.4400024       1.40611363E-07
   70.5599976      -7.10696384E-07
   70.6800003      -1.52195980E-06
   70.8000031      -2.25810641E-06
   70.9199982      -2.88722845E-06
   71.0400009      -3.38274981E-06
   71.1600037      -3.72529257E-06
   71.2799988      -3.90406512E-06
   71.4000015      -3.91764070E-06
   71.5199966      -3.77404172E-06
   71.6399994      -3.49010679E-06
   71.7600021      -3.09018696E-06
   71.8799973      -2.60427055E-06
   72.0000000      -2.06570053E-06
   72.1200027      -1.50867072E-06
   72.2399979      -9.65719892E-07
   72.3600006      -4.65432237E-07
   72.4800034      -3.05314849E-08
   72.5999985       3.23478957E-07
   72.7200012       5.89035153E-07