  -30.0000000       0.00000000    
  -29.8799992       0.00000000    
  -29.7600002       0.00000000    
  -29.6399994       0.00000000    
  -29.5200005       2.43013180E-41
  -29.3999996       2.03034134E-41
  -29.2800007      -1.93823400E-40
  -29.1599998      -3.63230575E-41
  -29.0400009       2.48668260E-39
  -28.9200001       3.51492318E-39
  -28.7999992      -2.70465261E-38
  -28.6800003      -1.46532469E-37
  -28.5599995      -3.27417265E-37
  -28.4400005      -1.72173989E-37
  -28.3199997       1.30640442E-36
  -28.2000008       5.10467928E-36
  -28.0799999       1.00421943E-35
  -27.9599991       9.49911719E-36
  -27.8400002      -9.45199840E-36
  -27.7199993      -5.85681393E-35
  -27.6000004      -1.29060739E-34
  -27.4799995      -1.67688436E-34
  -27.3600006      -7.21299175E-35
  -27.2399998       2.62118067E-34
  -27.1200008       8.30047969E-34
  -27.0000000       1.38266696E-33
  -26.8799992       1.38148798E-33
  -26.7600002       1.79875546E-34
  -26.6399994      -2.51471486E-33
  -26.5200005      -6.05284412E-33
  -26.3999996      -8.52828204E-33
  -26.2800007      -7.21972247E-33
  -26.1599998      -6.63074452E-36
  -26.0400009       1.26577158E-32
  -25.9200001       2.63521207E-32
  -25.7999992       3.32787740E-32
  -25.6800003       2.55814548E-32
  -25.5599995       5.14672202E-34
  -25.4400005      -3.52604312E-32
  -25.3199997      -6.57771374E-32
  -25.2000008      -7.23987265E-32
  -25.0799999      -4.54810931E-32
  -24.9599991       4.81814931E-33
  -24.8400002       4.68184324E-32
  -24.7199993       4.06906920E-32
  -24.6000004      -3.44423224E-32
  -24.4799995      -1.51031499E-31
  -24.3600006      -2.20015068E-31
  -24.2399998      -1.12184420E-31
  -24.1200008       2.79565823E-31
  -24.0000000       9.51028814E-31
  -23.8799992       1.70619544E-30
  -23.7600002       2.13424353E-30
  -23.6399994       1.68830686E-30
  -23.5200005      -1.15747120E-31
  -23.3999996      -3.40731915E-30
  -23.2800007      -7.65710325E-30
  -23.1599998      -1.14910016E-29
  -23.0400009      -1.27745820E-29
  -22.9200001      -9.09512968E-30
  -22.7999992       1.32536950E-30
  -22.6800003       1.84205825E-29
  -22.5599995       3.91250983E-29
  -22.4400005       5.68256042E-29
  -22.3199997       6.20415040E-29
  -22.2000008       4.47836099E-29
  -22.0799999      -1.45551845E-30
  -21.9599991      -7.48954734E-29
  -21.8400002      -1.61491982E-28
  -21.7199993      -2.33967290E-28
  -21.6000004      -2.55850260E-28
  -21.4799995      -1.91388638E-28
  -21.3600006      -2.01443244E-29
  -21.2399998       2.47393742E-28
  -21.1200008       5.58889992E-28
  -21.0000000       8.20268874E-28
  -20.8799992       9.11612072E-28
  -20.7600002       7.19656224E-28
  -20.6399994       1.81981072E-28
  -20.5200005      -6.68114920E-28
  -20.3999996      -1.67159318E-27
  -20.2800007      -2.54502494E-27
  -20.1599998      -2.92574123E-27
  -20.0400009      -2.46352979E-27
  -19.9200001      -9.47299073E-28
  -19.7999992       1.56124664E-27
  -19.6800003       4.62906930E-27
  -19.5599995       7.43715952E-27
  -19.4400005       8.89214875E-27
  -19.3199997       7.88308626E-27
  -19.2000008       3.66155644E-27
  -19.0799999      -3.72939347E-27
  -18.9599991      -1.31044356E-26
  -18.8400002      -2.20237762E-26
  -18.7199993      -2.70734505E-26
  -18.6000004      -2.46272468E-26
  -18.4799995      -1.20505652E-26
  -18.3600006       1.08715410E-26
  -18.2399998       4.06877106E-26
  -18.1200008       6.97540580E-26
  -18.0000000       8.69719148E-26
  -17.8799992       8.01432698E-26
  -17.7600002       3.98867888E-26
  -17.6399994      -3.55341748E-26
  -17.5200005      -1.35769495E-25
  -17.3999996      -2.36125174E-25
  -17.2800007      -2.99394555E-25
  -17.1599998      -2.83153783E-25
  -17.0400009      -1.52617678E-25
  -16.9200001       1.02798270E-25
  -16.7999992       4.53321730E-25
  -16.6800003       8.19101789E-25
  -16.5599995       1.07366868E-24
  -16.4400005       1.06598991E-24
  -16.3199997       6.62601104E-25
  -16.2000008      -1.95156176E-25
  -16.0799999      -1.43166135E-24
  -15.9600000      -2.79546943E-24
  -15.8400002      -3.85961794E-24
  -15.7200003      -4.08484365E-24
  -15.6000004      -2.95501280E-24
  -15.4799995      -1.73128825E-25
  -15.3599997       4.12097071E-24
  -15.2399998       9.17725909E-24
  -15.1199999       1.35899798E-23
  -15.0000000       1.54602853E-23
  -14.8800001       1.28146912E-23
  -14.7600002       4.26138835E-24
  -14.6400003      -1.02253910E-23
  -14.5200005      -2.86021085E-23
  -14.3999996      -4.64190748E-23
  -14.2799997      -5.71507007E-23
  -14.1599998      -5.34126170E-23
  -14.0400000      -2.90890124E-23
  -13.9200001       1.79080150E-23
  -13.8000002       8.28804846E-23
  -13.6800003       1.52534561E-22
  -13.5600004       2.05210111E-22
  -13.4399996       2.14086576E-22
  -13.3199997       1.53753383E-22
  -13.1999998       9.58637262E-24
  -13.0799999      -2.11852269E-22
  -12.9600000      -4.74392928E-22
  -12.8400002      -7.09630998E-22
  -12.7200003      -8.23841446E-22
  -12.6000004      -7.16836062E-22
  -12.4799995      -3.12362993E-22
  -12.3599997       4.04384817E-22
  -12.2399998       1.35110886E-21
  -12.1199999       2.32731466E-21
  -12.0000000       3.02192463E-21
  -11.8800001       3.06117532E-21
  -11.7600002       2.10082146E-21
  -11.6400003      -4.58574184E-23
  -11.5200005      -3.26853735E-21
  -11.3999996      -7.04860472E-21
  -11.2799997      -1.04260938E-20
  -11.1599998      -1.20935518E-20
  -11.0400000      -1.06483138E-20
  -10.9200001      -4.99893921E-21
  -10.8000002       5.12970564E-21
  -10.6800003       1.87063697E-20
  -10.5600004       3.30816443E-20
  -10.4399996       4.40394771E-20
  -10.3199997       4.63705464E-20
  -10.1999998       3.50375354E-20
  -10.0799999       6.85024858E-21
  -9.96000004      -3.76296674E-20
  -9.84000015      -9.24387195E-20
  -9.72000027      -1.45450599E-19
  -9.60000038      -1.79163198E-19
  -9.47999954      -1.73526660E-19
  -9.35999966      -1.10910961E-19
  -9.23999977       1.72953902E-20
  -9.11999989       2.03699184E-19
  -9.00000000       4.19469648E-19
  -8.88000011       6.12835265E-19
  -8.76000023       7.13807393E-19
  -8.64000034       6.46626420E-19
  -8.52000046       3.49813285E-19
  -8.39999962      -1.98607551E-19
  -8.27999973      -9.55794997E-19
  -8.15999985      -1.79613068E-18
  -8.03999996      -2.50929499E-18
  -7.92000008      -2.82234335E-18
  -7.80000019      -2.45038029E-18
  -7.67999983      -1.17422486E-18
  -7.55999994       1.06505201E-18
  -7.44000006       4.07425205E-18
  -7.32000017       7.34639451E-18
  -7.19999981       1.00605908E-17
  -7.07999992       1.11713025E-17
  -6.96000004       9.60204490E-18
  -6.84000015       4.53592595E-18
  -6.71999979      -4.23500923E-18
  -6.59999990      -1.59727865E-17
  -6.48000002      -2.87678991E-17
  -6.36000013      -3.95367584E-17
  -6.23999977      -4.43414667E-17
  -6.11999989      -3.90862857E-17
  -6.00000000      -2.05665671E-17
  -5.88000011       1.22597597E-17
  -5.76000023       5.70235683E-17
  -5.63999987       1.07062953E-16
  -5.51999998       1.51301776E-16
  -5.40000010       1.75247146E-16
  -5.28000021       1.63322180E-16
  -5.15999985       1.02491589E-16
  -5.03999996      -1.32153667E-17
  -4.92000008      -1.78077586E-16
  -4.80000019      -3.71099057E-16
  -4.67999983      -5.54825639E-16
  -4.55999994      -6.77863421E-16
  -4.44000006      -6.81995883E-16
  -4.32000017      -5.14005586E-16
  -4.19999981      -1.41167265E-16
  -4.07999992       4.31944928E-16
  -3.96000004       1.14896779E-15
  -3.83999991       1.89407938E-15
  -3.72000003       2.49576543E-15
  -3.59999990       2.74567000E-15
  -3.48000002       2.43396230E-15
  -3.35999990       1.39923575E-15
  -3.24000001      -4.13270578E-16
  -3.11999989      -2.89569902E-15
  -3.00000000      -5.73790960E-15
  -2.88000011      -8.41970062E-15
  -2.75999999      -1.02489182E-14
  -2.64000010      -1.04540840E-14
  -2.51999998      -8.33086380E-15
  -2.40000010      -3.42909557E-15
  -2.27999997       4.24692409E-15
  -2.16000009       1.40651955E-14
  -2.03999996       2.46686149E-14
  -1.91999996       3.40028298E-14
  -1.79999995       3.95086999E-14
  -1.67999995       3.84963430E-14
  -1.55999994       2.86840423E-14
  -1.44000006       8.84342207E-15
  -1.32000005      -2.05508336E-14
  -1.20000005      -5.68046756E-14
  -1.08000004      -9.47782705E-14
 -0.959999979      -1.27097538E-13
 -0.839999974      -1.44909272E-13
 -0.720000029      -1.39206653E-13
 -0.600000024      -1.02642219E-13
 -0.479999989      -3.16170226E-14
 -0.360000014       7.16913237E-14
 -0.239999995       1.97795136E-13
 -0.119999997       3.29331262E-13
  -1.11022302E-15   4.41891695E-13
  0.119999997       5.06534484E-13
  0.239999995       4.94012763E-13
  0.360000014       3.80431418E-13
  0.479999989       1.53670235E-13
  0.600000024      -1.80441464E-13
  0.720000029      -5.93473729E-13
  0.839999974      -1.03263394E-12
  0.959999979      -1.42311412E-12
   1.08000004      -1.67534595E-12
   1.20000005      -1.69726483E-12
   1.32000005      -1.41077254E-12
   1.44000006      -7.70560861E-13
   1.55999994       2.17503912E-13
   1.67999995       1.48196245E-12
   1.79999995       2.87910299E-12
   1.91999996       4.19749955E-12
   2.03999996       5.17611908E-12
   2.16000009       5.53656123E-12
   2.27999997       5.02762762E-12
   2.40000010       3.47770901E-12
   2.51999998       8.47887028E-13
   2.64000010      -2.72338705E-12
   2.75999999      -6.89412936E-12
   2.88000011      -1.11207155E-11
   3.00000000      -1.46950074E-11
   3.11999989      -1.68197279E-11
   3.24000001      -1.67193290E-11
   3.35999990      -1.37768616E-11
   3.48000002      -7.68063651E-12
   3.59999990       1.44137816E-12
   3.72000003       1.29248426E-11
   3.83999991       2.55355841E-11
   3.96000004       3.75208337E-11
   4.07999992       4.67580800E-11
   4.19999981       5.10017167E-11
   4.32000017       4.82120038E-11
   4.44000006       3.69339906E-11
   4.55999994       1.66784433E-11
   4.67999983      -1.17548445E-11
   4.80000019      -4.60757058E-11
   4.92000008      -8.24847551E-11
   5.03999996      -1.15883012E-10
   5.15999985      -1.40331552E-10
   5.28000021      -1.49749477E-10
   5.40000010      -1.38799611E-10
   5.51999998      -1.03872209E-10
   5.63999987      -4.40422733E-11
   5.76000023       3.81470099E-11
   5.88000011       1.36228751E-10
   6.00000000       2.39823772E-10
   6.11999989       3.35220102E-10
   6.23999977       4.06561146E-10
   6.36000013       4.37604897E-10
   6.48000002       4.13928086E-10
   6.59999990       3.25360267E-10
   6.71999979       1.68358980E-10
   6.84000015      -5.20139140E-11
   6.96000004      -3.20865251E-10
   7.07999992      -6.13309958E-10
   7.19999981      -8.95611418E-10
   7.32000017      -1.12772591E-09
   7.44000006      -1.26719046E-09
   7.55999994      -1.27410382E-09
   7.67999983      -1.11676524E-09
   7.80000019      -7.77374110E-10
   7.92000008      -2.57083077E-10
   8.03999996       4.20339263E-10
   8.15999985       1.20693200E-09
   8.27999973       2.03159511E-09
   8.39999962       2.80408541E-09
   8.52000046       3.42194695E-09
   8.64000034       3.78002651E-09
   8.76000023       3.78184861E-09
   8.88000011       3.35182260E-09
   9.00000000       2.44700704E-09
   9.11999989       1.06706421E-09
   9.23999977      -7.38932082E-10
   9.35999966      -2.86993296E-09
   9.47999954      -5.17534859E-09
   9.60000038      -7.46271667E-09
   9.72000027      -9.51028767E-09
   9.84000015      -1.10836194E-08
   9.96000004      -1.19547758E-08
   10.0799999      -1.19223387E-08
   10.1999998      -1.08302975E-08
   10.3199997      -8.58392823E-09
   10.4399996      -5.16113863E-09
   10.5600004      -6.18303686E-10
   10.6800003       4.90965801E-09
   10.8000002       1.12143850E-08
   10.9200001       1.80230124E-08
   11.0400000       2.50090295E-08
   11.1599998       3.18028270E-08
   11.2799997       3.79998149E-08
   11.3999996       4.31645795E-08
   11.5200005       4.68305430E-08
   11.6400003       4.84960054E-08
   11.7600002       4.76191282E-08
   11.8800001       4.36160654E-08
   12.0000000       3.58680161E-08
   12.1199999       2.37438336E-08
   12.2399998       6.64538780E-09
   12.3599997      -1.59182605E-08
   12.4799995      -4.42231531E-08
   12.6000004      -7.81878882E-08
   12.7200003      -1.17198503E-07
   12.8400002      -1.59908296E-07
   12.9600000      -2.04024872E-07
   13.0799999      -2.46102246E-07
   13.1999998      -2.81360400E-07
   13.3199997      -3.03556988E-07
   13.4399996      -3.04938965E-07
   13.5600004      -2.76299204E-07
   13.6800003      -2.07160696E-07
   13.8000002      -8.61045777E-08
   13.9200001       9.87513360E-08
   14.0400000       3.59127000E-07
   14.1599998       7.05824618E-07
   14.2799997       1.14787269E-06
   14.3999996       1.69161160E-06
   14.5200005       2.33977585E-06
   14.6400003       3.09063216E-06
   14.7600002       3.93724395E-06
   14.8800001       4.86692488E-06
   15.0000000       5.86094575E-06
   15.1199999       6.89454873E-06
   15.2399998       7.93730032E-06
   15.3599997       8.95380617E-06
   15.4799995       9.90478748E-06
   15.6000004       1.07484866E-05
   15.7200003       1.14423492E-05
   15.8400002       1.19449232E-05
   15.9600000       1.22178753E-05
   16.0799999       1.22280171E-05
   16.2000008       1.19492479E-05
   16.3199997       1.13642782E-05
   16.4400005       1.04660394E-05
   16.5599995       9.25868699E-06
   16.6800003       7.75811441E-06
   16.7999992       5.99193663E-06
   16.9200001       3.99891178E-06
   17.0400009       1.82781139E-06
   17.1599998      -4.64221387E-07
   17.2800007      -2.81375628E-06
   17.3999996      -5.15351394E-06
   17.5200005      -7.41503800E-06
   17.6399994      -9.53147446E-06
   17.7600002      -1.14403183E-05
   17.8799992      -1.30859917E-05
   18.0000000      -1.44221231E-05
   18.1200008      -1.54134123E-05
   18.2399998      -1.60369927E-05
   18.3600006      -1.62832112E-05
   18.4799995      -1.61558182E-05
   18.6000004      -1.56715341E-05
   18.7199993      -1.48590434E-05
   18.8400002      -1.37574953E-05
   18.9599991      -1.24145572E-05
   19.0799999      -1.08841805E-05
   19.2000008      -9.22417985E-06
   19.3199997      -7.49375613E-06
   19.4400005      -5.75109789E-06
   19.5599995      -4.05117908E-06
   19.6800003      -2.44384046E-06
   19.7999992      -9.72242674E-07
   19.9200001       3.28275064E-07
   20.0400009       1.43090642E-06
   20.1599998       2.31767262E-06
   20.2800007       2.97933593E-06
   20.3999996       3.41498435E-06
   20.5200005       3.63135700E-06
   20.6399994       3.64197922E-06
   20.7600002       3.46617730E-06
   20.8799992       3.12803377E-06
   21.0000000       2.65533390E-06
   21.1200008       2.07852963E-06
   21.2399998       1.42974716E-06
   21.3600006       7.41834924E-07
   21.4799995       4.74484487E-08
   21.6000004      -6.21838467E-07
   21.7199993      -1.23640734E-06
   21.8400002      -1.76945798E-06
   21.9599991      -2.19785306E-06
   22.0799999      -2.50292715E-06
   22.2000008      -2.67122482E-06
   22.3199997      -2.69512657E-06
   22.4400005      -2.57330612E-06
   22.5599995      -2.31097010E-06
   22.6800003      -1.91982531E-06
   22.7999992      -1.41773808E-06
   22.9200001      -8.28070540E-07
   23.0400009      -1.78689660E-07
   23.1599998       4.99315433E-07
   23.2800007       1.17315483E-06
   23.3999996       1.81001894E-06
   23.5200005       2.37882023E-06
   23.6399994       2.85188844E-06
   23.7600002       3.20650656E-06
   23.8799992       3.42618114E-06
   24.0000000       3.50155688E-06
   24.1200008       3.43090801E-06
   24.2399998       3.22016899E-06
   24.3600006       2.88249726E-06
   24.4799995       2.43739942E-06
   24.6000004       1.90948072E-06
   24.7199993       1.32690411E-06
   24.8400002       7.19670368E-07
   24.9599991       1.17834368E-07
   25.0799999      -4.50215254E-07
   25.2000008      -9.59301360E-07
   25.3199997      -1.38872895E-06
   25.4400005      -1.72320597E-06
   25.5599995      -1.95336793E-06
   25.6800003      -2.07589164E-06
   25.7999992      -2.09321433E-06
   25.9200001      -2.01290709E-06
   26.0400009      -1.84677219E-06
   26.1599998      -1.60975208E-06
   26.2800007      -1.31874901E-06
   26.3999996      -9.91449610E-07
   26.5200005      -6.45247098E-07
   26.6399994      -2.96329716E-07
   26.7600002       4.10127790E-08
   26.8799992       3.54838193E-07
   27.0000000       6.35756408E-07
   27.1200008       8.76912168E-07
   27.2399998       1.07378776E-06
   27.3600006       1.22388178E-06
   27.4799995       1.32632329E-06
   27.6000004       1.38148516E-06
   27.7199993       1.39064628E-06
   27.8400002       1.35574408E-06
   27.9599991       1.27923863E-06
   28.0799999       1.16409171E-06
   28.2000008       1.01384614E-06
   28.3199997       8.32774163E-07
   28.4400005       6.26054998E-07
   28.5599995       3.99931793E-07
   28.6800003       1.61806398E-07
   28.7999992      -7.97716595E-08
   28.9200001      -3.15246012E-07
   29.0400009      -5.34339051E-07
   29.1599998      -7.26476458E-07
   29.2800007      -8.81331118E-07
   29.3999996      -9.89448381E-07
   29.5200005      -1.04290791E-06
   29.6399994      -1.03596335E-06
   29.7600002      -9.65604045E-07
   29.8799992      -8.31981993E-07
   30.0000000      -6.38658946E-07
   30.1200008      -3.92635627E-07
   30.2399998      -1.04147688E-07
   30.3600006       2.13773404E-07
   30.4799995       5.45954094E-07
   30.6000004       8.75909791E-07
   30.7199993       1.18679941E-06
   30.8400002       1.46243872E-06
   30.9599991       1.68829956E-06
   31.0799999       1.85242493E-06
   31.2000008       1.94619156E-06
   31.3199997       1.96486485E-06
   31.4400005       1.90791025E-06
   31.5599995       1.77903473E-06
   31.6800003       1.58596583E-06
   31.7999992       1.33998242E-06
   31.9200001       1.05523930E-06
   32.0400009       7.47933825E-07
   32.1599998       4.35375512E-07
   32.2799988       1.35020514E-07
   32.4000015      -1.36469097E-07
   32.5200005      -3.64088578E-07
   32.6399994      -5.35233767E-07
   32.7599983      -6.40293138E-07
   32.8800011      -6.73070872E-07
   33.0000000      -6.31033060E-07
   33.1199989      -5.15378758E-07
   33.2400017      -3.30945767E-07
   33.3600006      -8.59644658E-08
   33.4799995       2.08321723E-07
   33.5999985       5.38150061E-07
   33.7200012       8.87823887E-07
   33.8400002       1.24036740E-06
   33.9599991       1.57822444E-06
   34.0800018       1.88397553E-06
   34.2000008       2.14104739E-06
   34.3199997       2.33438823E-06
   34.4399986       2.45108549E-06
   34.5600014       2.48090032E-06
   34.6800003       2.41671023E-06
   34.7999992       2.25483518E-06
   34.9199982       1.99525334E-06
   35.0400009       1.64169535E-06
   35.1599998       1.20162349E-06
   35.2799988       6.86103135E-07
   35.4000015       1.09567175E-07
   35.5200005      -5.10515235E-07
   35.6399994      -1.15406544E-06
   35.7599983      -1.79891231E-06
   35.8800011      -2.42139799E-06
   36.0000000      -2.99706971E-06
   36.1199989      -3.50145183E-06
   36.2400017      -3.91088497E-06
   36.3600006      -4.20342212E-06
   36.4799995      -4.35975244E-06
   36.5999985      -4.36412392E-06
   36.7200012      -4.20522792E-06
   36.8400002      -3.87700356E-06
   36.9599991      -3.37931556E-06
   37.0800018      -2.71845988E-06
   37.2000008      -1.90745527E-06
   37.3199997      -9.66081188E-07
   37.4399986       7.93695847E-08
   37.5600014       1.19664242E-06
   37.6800003       2.34838353E-06
   37.7999992       3.49330617E-06
   37.9199982       4.58763634E-06
   38.0400009       5.58679039E-06
   38.1599998       6.44722741E-06
   38.2799988       7.12839483E-06
   38.4000015       7.59467821E-06
   38.5200005       7.81724248E-06
   38.6399994       7.77567675E-06
   38.7599983       7.45931357E-06
   38.8800011       6.86816020E-06
   39.0000000       6.01334568E-06
   39.1199989       4.91704805E-06
   39.2400017       3.61188359E-06
   39.3600006       2.13976637E-06
   39.4799995       5.50292668E-07
   39.5999985      -1.10127678E-06
   39.7200012      -2.75633784E-06
   39.8400002      -4.35544962E-06
   39.9599991      -5.84089730E-06
   40.0800018      -7.15919168E-06
   40.2000008      -8.26336418E-06
   40.3199997      -9.11496409E-06
   40.4399986      -9.68564746E-06
   40.5600014      -9.95828395E-06
   40.6800003      -9.92753303E-06
   40.7999992      -9.59985209E-06
   40.9199982      -8.99295628E-06
   41.0400009      -8.13474799E-06
   41.1599998      -7.06178162E-06
   41.2799988      -5.81736322E-06
   41.4000015      -4.44938132E-06
   41.5200005      -3.00801617E-06
   41.6399994      -1.54345014E-06
   41.7599983      -1.03723217E-07
   41.8800011       1.26715020E-06
   42.0000000       2.53070175E-06
   42.1199989       3.65509936E-06
   42.2400017       4.61577838E-06
   42.3600006       5.39562052E-06
   42.4799995       5.98472388E-06
   42.5999985       6.37983885E-06
   42.7200012       6.58356430E-06
   42.8400002       6.60340902E-06
   42.9599991       6.45082628E-06
   43.0800018       6.14030387E-06
   43.2000008       5.68858331E-06
   43.3199997       5.11405460E-06
   43.4399986       4.43632871E-06
   43.5600014       3.67597090E-06
   43.6800003       2.85436568E-06
   43.7999992       1.99363603E-06
   43.9199982       1.11656334E-06
   44.0400009       2.46434126E-07
   44.1599998      -5.93241282E-07
   44.2799988      -1.37917959E-06
   44.4000015      -2.08896063E-06
   44.5200005      -2.70183978E-06
   44.6399994      -3.19969649E-06
   44.7599983      -3.56805799E-06
   44.8800011      -3.79710696E-06
   45.0000000      -3.88257786E-06
   45.1199989      -3.82643157E-06
   45.2400017      -3.63720983E-06
   45.3600006      -3.32999093E-06
   45.4799995      -2.92588516E-06
   45.5999985      -2.45105934E-06
   45.7200012      -1.93531014E-06
   45.8400002      -1.41026442E-06
   45.9599991      -9.07314188E-07
   46.0800018      -4.55441011E-07
   46.2000008      -7.91025343E-08
   46.3199997       2.03632908E-07
   46.4399986       3.82526565E-07
   46.5600014       4.56033945E-07
   46.6800003       4.31483727E-07
   46.7999992       3.24519675E-07
   46.9199982       1.57819287E-07
   47.0400009      -4.08296081E-08
   47.1599998      -2.40945610E-07
   47.2799988      -4.12063969E-07
   47.4000015      -5.26500855E-07
   47.5200005      -5.61919990E-07
   47.6399994      -5.03458352E-07
   47.7599983      -3.45204370E-07
   47.8800011      -9.08788564E-08
   48.0000000       2.46355825E-07
   48.1199989       6.44947932E-07
   48.2400017       1.07677613E-06
   48.3600006       1.50956475E-06
   48.4799995       1.90966557E-06
   48.5999985       2.24494215E-06
   48.7200012       2.48748461E-06
   48.8400002       2.61590890E-06
   48.9599991       2.61703713E-06
   49.0800018       2.48682591E-06
   49.2000008       2.23049415E-06
   49.3199997       1.86187162E-06
   49.4399986       1.40207453E-06
   49.5600014       8.77669549E-07
   49.6800003       3.18522979E-07
   49.7999992      -2.44450291E-07
   49.9199982      -7.81437905E-07
   50.0400009      -1.26561110E-06
   50.1599998      -1.67461030E-06
   50.2799988      -1.99156830E-06
   50.4000015      -2.20565312E-06
   50.5200005      -2.31216404E-06
   50.6399994      -2.31225135E-06
   50.7599983      -2.21234336E-06
   50.8800011      -2.02338197E-06
   51.0000000      -1.75994717E-06
   51.1199989      -1.43934062E-06
   51.2400017      -1.08067366E-06
   51.3600006      -7.03978230E-07
   51.4799995      -3.29344289E-07
   51.5999985       2.39246685E-08
   51.7200012       3.38148510E-07
   51.8400002       5.98100428E-07
   51.9599991       7.91815182E-07
   52.0800018       9.11339669E-07
   52.2000008       9.53370773E-07
   52.3199997       9.19709748E-07
   52.4399986       8.17455430E-07
   52.5600014       6.58865304E-07
   52.6800003       4.60831927E-07
   52.7999992       2.43952513E-07
   52.9199982       3.12097441E-08
   53.0400009      -1.53672801E-07
   53.1599998      -2.88094839E-07
   53.2799988      -3.52518697E-07
   53.4000015      -3.32316603E-07
   53.5200005      -2.19349687E-07
   53.6399994      -1.31135192E-08
   53.7599983       2.78686343E-07
   53.8800011       6.40219980E-07
   54.0000000       1.04831440E-06
   54.1199989       1.47390085E-06
   54.2400017       1.88403874E-06
   54.3600006       2.24436531E-06
   54.4799995       2.52178324E-06
   54.5999985       2.68716417E-06
   54.7200012       2.71784552E-06
   54.8400002       2.59970057E-06
   54.9599991       2.32860020E-06
   55.0800018       1.91112804E-06
   55.2000008       1.36446556E-06
   55.3199997       7.15439000E-07
   55.4399986      -1.21922494E-09
   55.5600014      -7.45272871E-07
   55.6800003      -1.47386663E-06
   55.7999992      -2.14467332E-06
   55.9199982      -2.71904855E-06
   56.0400009      -3.16493788E-06
   56.1599998      -3.45928675E-06
   56.2799988      -3.58974808E-06
   56.4000015      -3.55552493E-06
   56.5200005      -3.36726362E-06
   56.6399994      -3.04599121E-06
   56.7599983      -2.62116919E-06
   56.8800011      -2.12802956E-06
   57.0000000      -1.60441175E-06
   57.1199989      -1.08738880E-06
   57.2400017      -6.09985989E-07
   57.3600006      -1.98304789E-07
   57.4799995       1.30674962E-07
   57.5999985       3.70388989E-07
   57.7200012       5.24941981E-07
   57.8400002       6.08278640E-07
   57.9599991       6.42335579E-07
   58.0800018       6.54341477E-07
   58.2000008       6.73522436E-07
   58.3199997       7.27535962E-07
   58.4399986       8.38993401E-07
   58.5600014       1.02243473E-06
   58.6800003       1.28208285E-06
   58.7999992       1.61063178E-06
   58.9199982       1.98922999E-06
   59.0400009       2.38869484E-06
   59.1599998       2.77187360E-06
   59.2799988       3.09693928E-06
   59.4000015       3.32131503E-06
   59.5200005       3.40584597E-06
   59.6399994       3.31880869E-06
   59.7599983       3.03935985E-06
   59.8800011       2.56008252E-06
   60.0000000       1.88837635E-06
   60.1199989       1.04656090E-06
   60.2400017       7.06829653E-08
   60.3600006      -9.91845695E-07
   60.4799995      -2.08555002E-06
   60.5999985      -3.15081456E-06
   60.7200012      -4.12807094E-06
   60.8400002      -4.96187658E-06
   60.9599991      -5.60455283E-06
   61.0800018      -6.01911188E-06
   61.2000008      -6.18128388E-06
   61.3199997      -6.08056325E-06
   61.4399986      -5.72028102E-06
   61.5600014      -5.11679900E-06
   61.6800003      -4.29798774E-06
   61.7999992      -3.30118246E-06
   61.9199982      -2.17082652E-06
   62.0400009      -9.55995915E-07
   62.1599998       2.92028147E-07
   62.2799988       1.52202858E-06
   62.4000015       2.68488702E-06
   62.5200005       3.73535977E-06
   62.6399994       4.63359584E-06
   62.7599983       5.34641913E-06
   62.8800011       5.84840336E-06
   63.0000000       6.12273652E-06
   63.1199989       6.16188208E-06
   63.2400017       5.96799191E-06
   63.3600006       5.55302131E-06
   63.4799995       4.93847574E-06
   63.5999985       4.15472596E-06
   63.7200012       3.23984068E-06
   63.8400002       2.23791426E-06
   63.9599991       1.19692641E-06
   64.0800018       1.66208054E-07
   64.1999969      -8.06346520E-07
   64.3199997      -1.67713267E-06
   64.4400024      -2.40953545E-06
   64.5599976      -2.97624115E-06
   64.6800003      -3.36093785E-06
   64.8000031      -3.55922566E-06
   64.9199982      -3.57861813E-06
   65.0400009      -3.43760621E-06
   65.1600037      -3.16384262E-06
   65.2799988      -2.79160417E-06
   65.4000015      -2.35875700E-06
   65.5199966      -1.90351636E-06
   65.6399994      -1.46130355E-06
   65.7600021      -1.06199400E-06
   65.8799973      -7.27808072E-07
   66.0000000      -4.72016922E-07
   66.1200027      -2.98549992E-07
   66.2399979      -2.02491108E-07
   66.3600006      -1.71357470E-07
   66.4800034      -1.86985133E-07
   66.5999985      -2.27790409E-07
   66.7200012      -2.71158228E-07
   66.8399963      -2.95716831E-07
   66.9599991      -2.83293360E-07
   67.0800018      -2.20400608E-07
   67.1999969      -9.91704283E-08
   67.3199997       8.22822983E-08
   67.4400024       3.20021030E-07
   67.5599976       6.04884576E-07
   67.6800003       9.23401842E-07
   67.8000031       1.25889881E-06
   67.9199982       1.59268416E-06
   68.0400009       1.90521860E-06
   68.1600037       2.17721094E-06
   68.2799988       2.39060432E-06
   68.4000015       2.52945188E-06
   68.5199966       2.58068849E-06
   68.6399994       2.53481198E-06
   68.7600021       2.38648317E-06
   68.8799973       2.13503085E-06
   69.0000000       1.78483629E-06
   69.1200027       1.34554728E-06
   69.2399979       8.32063904E-07
   69.3600006       2.64229328E-07
   69.4800034      -3.33822442E-07
   69.5999985      -9.34695095E-07
   69.7200012      -1.50912672E-06
   69.8399963      -2.02770434E-06
   69.9599991      -2.46280092E-06
   70.0800018      -2.79059077E-06
   70.1999969      -2.99297108E-06
   70.3199997      -3.05919707E-06
   70.4400024      -2.98704254E-06
   70.5599976      -2.78332891E-06
   70.6800003      -2.46371246E-06
   70.8000031      -2.05169476E-06
   70.9199982      -1.57689794E-06
   71.0400009      -1.07272876E-06
   71.1600037      -5.73635532E-07
   71.2799988      -1.12210110E-07
   71.4000015       2.83580675E-07
   71.5199966       5.92751746E-07
   71.6399994       8.02998215E-07
   71.7600021       9.11554707E-07
   71.8799973       9.25118457E-07
   72.0000000       8.58841076E-07
   72.1200027       7.34495416E-07
   72.2399979       5.78010258E-07
   72.3600006       4.16641143E-07
   72.4800034       2.76077628E-07
   72.5999985       1.77797901E-07
   72.7200012       1.36946326E-07