  -30.0000000       0.00000000    
  -29.8799992       0.00000000    
  -29.7600002       0.00000000    
  -29.6399994       0.00000000    
  -29.5200005       0.00000000    
  -29.3999996       0.00000000    
  -29.2800007       0.00000000    
  -29.1599998       0.00000000    
  -29.0400009       5.85204423E-35
  -28.9200001       1.20157049E-33
  -28.7999992       1.79769618E-33
  -28.6800003      -6.65169406E-32
  -28.5599995      -6.34547931E-31
  -28.4400005      -3.12018048E-30
  -28.3199997      -9.91487844E-30
  -28.2000008      -2.00432417E-29
  -28.0799999      -1.45081100E-29
  -27.9599991       6.88300038E-29
  -27.8400002       3.46720040E-28
  -27.7199993       9.24038847E-28
  -27.6000004       1.66672423E-27
  -27.4799995       1.81070830E-27
  -27.3600006      -3.57730293E-28
  -27.2399998      -7.17575382E-27
  -27.1200008      -1.98909475E-26
  -27.0000000      -3.52615031E-26
  -26.8799992      -4.15406418E-26
  -26.7600002      -1.70142383E-26
  -26.6399994       6.39441775E-26
  -26.5200005       2.12646825E-25
  -26.3999996       3.95555911E-25
  -26.2800007       5.01561018E-25
  -26.1599998       3.32611861E-25
  -26.0400009      -3.41692759E-25
  -25.9200001      -1.62441449E-24
  -25.7999992      -3.22282161E-24
  -25.6800003      -4.16552597E-24
  -25.5599995      -2.75097136E-24
  -25.4400005       2.89950184E-24
  -25.3199997       1.33742673E-23
  -25.2000008       2.57345928E-23
  -25.0799999       3.15629685E-23
  -24.9599991       1.74051541E-23
  -24.8400002      -2.99041897E-23
  -24.7199993      -1.11929618E-22
  -24.6000004      -2.04035983E-22
  -24.4799995      -2.45599688E-22
  -24.3600006      -1.47240711E-22
  -24.2399998       1.74133358E-22
  -24.1200008       7.31860972E-22
  -24.0000000       1.39502657E-21
  -23.8799992       1.83933545E-21
  -23.7600002       1.56924493E-21
  -23.6399994       4.88707914E-23
  -23.5200005      -3.04700057E-21
  -23.3999996      -7.48640460E-21
  -23.2800007      -1.21027017E-20
  -23.1599998      -1.45048883E-20
  -23.0400009      -1.10894394E-20
  -22.9200001       2.28993744E-21
  -22.7999992       2.85276499E-20
  -22.6800003       6.60219828E-20
  -22.5599995       1.04367530E-19
  -22.4400005       1.20830563E-19
  -22.3199997       8.13248048E-20
  -22.2000008      -4.93059874E-20
  -22.0799999      -2.84515105E-19
  -21.9599991      -5.83703566E-19
  -21.8400002      -8.23639711E-19
  -21.7199993      -7.97936314E-19
  -21.6000004      -2.72368914E-19
  -21.4799995       8.89725703E-19
  -21.3600006       2.55363001E-18
  -21.2399998       4.16431175E-18
  -21.1200008       4.73982556E-18
  -21.0000000       3.12484558E-18
  -20.8799992      -1.45484867E-18
  -20.7600002      -8.65608611E-18
  -20.6399994      -1.64168816E-17
  -20.5200005      -2.09409888E-17
  -20.3999996      -1.76649697E-17
  -20.2800007      -3.27533124E-18
  -20.1599998       2.17271511E-17
  -20.0400009       5.10295628E-17
  -19.9200001       7.25015667E-17
  -19.7999992       7.12770218E-17
  -19.6800003       3.58932792E-17
  -19.5599995      -3.42186124E-17
  -19.4400005      -1.23157227E-16
  -19.3199997      -1.98665146E-16
  -19.2000008      -2.20424575E-16
  -19.0799999      -1.55851852E-16
  -18.9599991       1.42698148E-18
  -18.8400002       2.18510479E-16
  -18.7199993       4.23993247E-16
  -18.6000004       5.27129673E-16
  -18.4799995       4.52384309E-16
  -18.3600006       1.77775950E-16
  -18.2399998      -2.40075289E-16
  -18.1200008      -6.69893847E-16
  -18.0000000      -9.44704316E-16
  -17.8799992      -9.26391570E-16
  -17.7600002      -5.71572804E-16
  -17.6399994       3.20981249E-17
  -17.5200005       6.82804958E-16
  -17.3999996       1.13730510E-15
  -17.2800007       1.21501434E-15
  -17.1599998       8.87990061E-16
  -17.0400009       3.09045794E-16
  -16.9200001      -2.47832523E-16
  -16.7999992      -5.20186173E-16
  -16.6800003      -4.06299788E-16
  -16.5599995      -5.25321992E-17
  -16.4400005       1.84778226E-16
  -16.3199997      -8.62820186E-17
  -16.2000008      -1.04364825E-15
  -16.0799999      -2.44606662E-15
  -15.9600000      -3.60214822E-15
  -15.8400002      -3.58818361E-15
  -15.7200003      -1.67919613E-15
  -15.6000004       2.16511807E-15
  -15.4799995       6.99488575E-15
  -15.3599997       1.09607690E-14
  -15.2399998       1.18847074E-14
  -15.1199999       8.18461255E-15
  -15.0000000      -1.80617997E-16
  -14.8800001      -1.11856444E-14
  -14.7600002      -2.10016635E-14
  -14.6400003      -2.51559502E-14
  -14.5200005      -2.03164020E-14
  -14.3999996      -6.07308520E-15
  -14.2799997       1.40783288E-14
  -14.1599998       3.32017535E-14
  -14.0400000       4.30143321E-14
  -13.9200001       3.71175157E-14
  -13.8000002       1.42477938E-14
  -13.6800003      -1.98670189E-14
  -13.5600004      -5.32137946E-14
  -13.4399996      -7.11116618E-14
  -13.3199997      -6.19120843E-14
  -13.1999998      -2.28369451E-14
  -13.0799999       3.65427191E-14
  -12.9600000       9.52926906E-14
  -12.8400002       1.27271566E-13
  -12.7200003       1.11109100E-13
  -12.6000004       4.06818032E-14
  -12.4799995      -6.82726851E-14
  -12.3599997      -1.79179141E-13
  -12.2399998      -2.44736062E-13
  -12.1199999      -2.24077172E-13
  -12.0000000      -1.01513477E-13
  -11.8800001       1.00536672E-13
  -11.7600002       3.21098156E-13
  -11.6400003       4.75713436E-13
  -11.5200005       4.84448744E-13
  -11.3999996       3.04499915E-13
  -11.2799997      -4.44722858E-14
  -11.1599998      -4.73652150E-13
  -11.0400000      -8.43333324E-13
  -10.9200001      -1.00401458E-12
  -10.8000002      -8.49136408E-13
  -10.6800003      -3.61963768E-13
  -10.5600004       3.61571856E-13
  -10.4399996       1.12625469E-12
  -10.3199997       1.68798883E-12
  -10.1999998       1.82876999E-12
  -10.0799999       1.43332308E-12
  -9.96000004       5.41027401E-13
  -9.84000015      -6.47662262E-13
  -9.72000027      -1.81746426E-12
  -9.60000038      -2.62676166E-12
  -9.47999954      -2.81228556E-12
  -9.35999966      -2.27609186E-12
  -9.23999977      -1.12441686E-12
  -9.11999989       3.57453569E-13
  -9.00000000       1.78886962E-12
  -8.88000011       2.80978951E-12
  -8.76000023       3.19006865E-12
  -8.64000034       2.89386375E-12
  -8.52000046       2.07592775E-12
  -8.39999962       1.01113974E-12
  -8.27999973      -1.59103687E-14
  -8.15999985      -8.17944237E-13
  -8.03999996      -1.36493486E-12
  -7.92000008      -1.77057739E-12
  -7.80000019      -2.20836066E-12
  -7.67999983      -2.79097036E-12
  -7.55999994      -3.46606945E-12
  -7.44000006      -3.98029353E-12
  -7.32000017      -3.93990569E-12
  -7.19999981      -2.95835058E-12
  -7.07999992      -8.42088552E-13
  -6.96000004       2.25738850E-12
  -6.84000015       5.79437756E-12
  -6.71999979       8.92040521E-12
  -6.59999990       1.07044113E-11
  -6.48000002       1.04195420E-11
  -6.36000013       7.80299436E-12
  -6.23999977       3.19618811E-12
  -6.11999989      -2.49283081E-12
  -6.00000000      -8.00538802E-12
  -5.88000011      -1.20671953E-11
  -5.76000023      -1.37417491E-11
  -5.63999987      -1.26935962E-11
  -5.51999998      -9.28114790E-12
  -5.40000010      -4.45221811E-12
  -5.28000021       5.24144909E-13
  -5.15999985       4.40895888E-12
  -5.03999996       6.32735401E-12
  -4.92000008       5.99584922E-12
  -4.80000019       3.78827438E-12
  -4.67999983       6.31510523E-13
  -4.55999994      -2.23529376E-12
  -4.44000006      -3.57529457E-12
  -4.32000017      -2.46831592E-12
  -4.19999981       1.44363547E-12
  -4.07999992       7.83037871E-12
  -3.96000004       1.56917639E-11
  -3.83999991       2.35150892E-11
  -3.72000003       2.95371609E-11
  -3.59999990       3.20520520E-11
  -3.48000002       2.96921480E-11
  -3.35999990       2.16130325E-11
  -3.24000001       7.53487030E-12
  -3.11999989      -1.23689574E-11
  -3.00000000      -3.77004677E-11
  -2.88000011      -6.81095041E-11
  -2.75999999      -1.03519075E-10
  -2.64000010      -1.44223272E-10
  -2.51999998      -1.90815572E-10
  -2.40000010      -2.43957771E-10
  -2.27999997      -3.04052533E-10
  -2.16000009      -3.70915215E-10
  -2.03999996      -4.43544507E-10
  -1.91999996      -5.20065824E-10
  -1.79999995      -5.97874639E-10
  -1.67999995      -6.73955336E-10
  -1.55999994      -7.45311368E-10
  -1.44000006      -8.09421086E-10
  -1.32000005      -8.64634586E-10
  -1.20000005      -9.10449494E-10
  -1.08000004      -9.47626200E-10
 -0.959999979      -9.78133685E-10
 -0.839999974      -1.00494135E-09
 -0.720000029      -1.03168674E-09
 -0.600000024      -1.06227005E-09
 -0.479999989      -1.10043485E-09
 -0.360000014      -1.14940224E-09
 -0.239999995      -1.21162158E-09
 -0.119999997      -1.28867816E-09
  -1.11022302E-15  -1.38136180E-09
  0.119999997      -1.48985724E-09
  0.239999995      -1.61397318E-09
  0.360000014      -1.75332271E-09
  0.479999989      -1.90738558E-09
  0.600000024      -2.07543982E-09
  0.720000029      -2.25642327E-09
  0.839999974      -2.44883669E-09
  0.959999979      -2.65080691E-09
   1.08000004      -2.86037616E-09
   1.20000005      -3.07598969E-09
   1.32000005      -3.29703953E-09
   1.44000006      -3.52426510E-09
   1.55999994      -3.75982667E-09
   1.67999995      -4.00697964E-09
   1.79999995      -4.26943769E-09
   1.91999996      -4.55066562E-09
   2.03999996      -4.85339857E-09
   2.16000009      -5.17961674E-09
   2.27999997      -5.53101209E-09
   2.40000010      -5.90973226E-09
   2.51999998      -6.31903507E-09
   2.64000010      -6.76344092E-09
   2.75999999      -7.24816340E-09
   2.88000011      -7.77790365E-09
   3.00000000      -8.35543901E-09
   3.11999989      -8.98060737E-09
   3.24000001      -9.65024682E-09
   3.35999990      -1.03593250E-08
   3.48000002      -1.11030136E-08
   3.59999990      -1.18790258E-08
   3.72000003      -1.26893616E-08
   3.83999991      -1.35407170E-08
   3.96000004      -1.44433265E-08
   4.07999992      -1.54085829E-08
   4.19999981      -1.64463465E-08
   4.32000017      -1.75629680E-08
   4.44000006      -1.87608453E-08
   4.55999994      -2.00396979E-08
   4.67999983      -2.13990194E-08
   4.80000019      -2.28405792E-08
   4.92000008      -2.43698519E-08
   5.03999996      -2.59955097E-08
   5.15999985      -2.77270296E-08
   5.28000021      -2.95711864E-08
   5.40000010      -3.15289164E-08
   5.51999998      -3.35939561E-08
   5.63999987      -3.57541730E-08
   5.76000023      -3.79955409E-08
   5.88000011      -4.03076541E-08
   6.00000000      -4.26889954E-08
   6.11999989      -4.51501414E-08
   6.23999977      -4.77136339E-08
   6.36000013      -5.04103284E-08
   6.48000002      -5.32732685E-08
   6.59999990      -5.63309754E-08
   6.71999979      -5.96022502E-08
   6.84000015      -6.30941486E-08
   6.96000004      -6.68036648E-08
   7.07999992      -7.07225070E-08
   7.19999981      -7.48432711E-08
   7.32000017      -7.91648205E-08
   7.44000006      -8.36952196E-08
   7.55999994      -8.84511380E-08
   7.67999983      -9.34541973E-08
   7.80000019      -9.87254865E-08
   7.92000008      -1.04280218E-07
   8.03999996      -1.10124468E-07
   8.15999985      -1.16255030E-07
   8.27999973      -1.22662527E-07
   8.39999962      -1.29336783E-07
   8.52000046      -1.36272675E-07
   8.64000034      -1.43474765E-07
   8.76000023      -1.50959210E-07
   8.88000011      -1.58752613E-07
   9.00000000      -1.66888398E-07
   9.11999989      -1.75401837E-07
   9.23999977      -1.84325344E-07
   9.35999966      -1.93685551E-07
   9.47999954      -2.03502395E-07
   9.60000038      -2.13790400E-07
   9.72000027      -2.24560992E-07
   9.84000015      -2.35825041E-07
   9.96000004      -2.47594613E-07
   10.0799999      -2.59883564E-07
   10.1999998      -2.72707155E-07
   10.3199997      -2.86081018E-07
   10.4399996      -3.00020417E-07
   10.5600004      -3.14539818E-07
   10.6800003      -3.29653034E-07
   10.8000002      -3.45373337E-07
   10.9200001      -3.61713518E-07
   11.0400000      -3.78685598E-07
   11.1599998      -3.96300265E-07
   11.2799997      -4.14566898E-07
   11.3999996      -4.33494364E-07
   11.5200005      -4.53093321E-07
   11.6400003      -4.73379146E-07
   11.7600002      -4.94375513E-07
   11.8800001      -5.16116415E-07
   12.0000000      -5.38646873E-07
   12.1199999      -5.62020261E-07
   12.2399998      -5.86293936E-07
   12.3599997      -6.11522466E-07
   12.4799995      -6.37751214E-07
   12.6000004      -6.65011953E-07
   12.7200003      -6.93320999E-07
   12.8400002      -7.22681136E-07
   12.9600000      -7.53086056E-07
   13.0799999      -7.84526549E-07
   13.1999998      -8.16997385E-07
   13.3199997      -8.50502204E-07
   13.4399996      -8.85056579E-07
   13.5600004      -9.20688365E-07
   13.6800003      -9.57435304E-07
   13.8000002      -9.95341907E-07
   13.9200001      -1.03445552E-06
   14.0400000      -1.07482390E-06
   14.1599998      -1.11649274E-06
   14.2799997      -1.15950627E-06
   14.3999996      -1.20390678E-06
   14.5200005      -1.24973565E-06
   14.6400003      -1.29703255E-06
   14.7600002      -1.34583399E-06
   14.8800001      -1.39617100E-06
   15.0000000      -1.44806779E-06
   15.1199999      -1.50154108E-06
   15.2399998      -1.55660234E-06
   15.3599997      -1.61326113E-06
   15.4799995      -1.67153166E-06
   15.6000004      -1.73143803E-06
   15.7200003      -1.79301901E-06
   15.8400002      -1.85633064E-06
   15.9600000      -1.92144421E-06
   16.0799999      -1.98844168E-06
   16.2000008      -2.05740866E-06
   16.3199997      -2.12842519E-06
   16.4400005      -2.20155948E-06
   16.5599995      -2.27686041E-06
   16.6800003      -2.35435846E-06
   16.7999992      -2.43406566E-06
   16.9200001      -2.51598271E-06
   17.0400009      -2.60010620E-06
   17.1599998      -2.68643976E-06
   17.2800007      -2.77500158E-06
   17.3999996      -2.86582940E-06
   17.5200005      -2.95898417E-06
   17.6399994      -3.05454500E-06
   17.7600002      -3.15260445E-06
   17.8799992      -3.25326164E-06
   18.0000000      -3.35661525E-06
   18.1200008      -3.46275988E-06
   18.2399998      -3.57178305E-06
   18.3600006      -3.68376777E-06
   18.4799995      -3.79879157E-06
   18.6000004      -3.91693220E-06
   18.7199993      -4.03826925E-06
   18.8400002      -4.16288503E-06
   18.9599991      -4.29086867E-06
   19.0799999      -4.42231658E-06
   19.2000008      -4.55733107E-06
   19.3199997      -4.69601719E-06
   19.4400005      -4.83848044E-06
   19.5599995      -4.98481859E-06
   19.6800003      -5.13512305E-06
   19.7999992      -5.28947339E-06
   19.9200001      -5.44794739E-06
   20.0400009      -5.61062870E-06
   20.1599998      -5.77761739E-06
   20.2800007      -5.94904259E-06
   20.3999996      -6.12506710E-06
   20.5200005      -6.30588420E-06
   20.6399994      -6.49170943E-06
   20.7600002      -6.68276607E-06
   20.8799992      -6.87926695E-06
   21.0000000      -7.08140033E-06
   21.1200008      -7.28932810E-06
   21.2399998      -7.50318304E-06
   21.3600006      -7.72308522E-06
   21.4799995      -7.94915741E-06
   21.6000004      -8.18153603E-06
   21.7199993      -8.42039117E-06
   21.8400002      -8.66592200E-06
   21.9599991      -8.91835680E-06
   22.0799999      -9.17794205E-06
   22.2000008      -9.44493240E-06
   22.3199997      -9.71958252E-06
   22.4400005      -1.00021371E-05
   22.5599995      -1.02928288E-05
   22.6800003      -1.05918843E-05
   22.7999992      -1.08995227E-05
   22.9200001      -1.12159632E-05
   23.0400009      -1.15414314E-05
   23.1599998      -1.18761654E-05
   23.2800007      -1.22204174E-05
   23.3999996      -1.25744536E-05
   23.5200005      -1.29385626E-05
   23.6399994      -1.33130488E-05
   23.7600002      -1.36982362E-05
   23.8799992      -1.40944594E-05
   24.0000000      -1.45020649E-05
   24.1200008      -1.49213984E-05
   24.2399998      -1.53528090E-05
   24.3600006      -1.57966315E-05
   24.4799995      -1.62531942E-05
   24.6000004      -1.67228209E-05
   24.7199993      -1.72058353E-05
   24.8400002      -1.77025777E-05
   24.9599991      -1.82134063E-05
   25.0799999      -1.87387068E-05
   25.2000008      -1.92788793E-05
   25.3199997      -1.98343478E-05
   25.4400005      -2.04055395E-05
   25.5599995      -2.09928712E-05
   25.6800003      -2.15967557E-05
   25.7999992      -2.22175840E-05
   25.9200001      -2.28557401E-05
   26.0400009      -2.35115986E-05
   26.1599998      -2.41855232E-05
   26.2800007      -2.48778779E-05
   26.3999996      -2.55890245E-05
   26.5200005      -2.63193160E-05
   26.6399994      -2.70691162E-05
   26.7600002      -2.78387997E-05
   26.8799992      -2.86287468E-05
   27.0000000      -2.94393740E-05
   27.1200008      -3.02711178E-05
   27.2399998      -3.11244112E-05
   27.3600006      -3.19997052E-05
   27.4799995      -3.28974056E-05
   27.6000004      -3.38178652E-05
   27.7199993      -3.47614077E-05
   27.8400002      -3.57282952E-05
   27.9599991      -3.67187713E-05
   28.0799999      -3.77330834E-05
   28.2000008      -3.87715008E-05
   28.3199997      -3.98343145E-05
   28.4400005      -4.09218483E-05
   28.5599995      -4.20344550E-05
   28.6800003      -4.31724766E-05
   28.7999992      -4.43362333E-05
   28.9200001      -4.55260160E-05
   29.0400009      -4.67420759E-05
   29.1599998      -4.79846276E-05
   29.2800007      -4.92538493E-05
   29.3999996      -5.05499047E-05
   29.5200005      -5.18729285E-05
   29.6399994      -5.32230442E-05
   29.7600002      -5.46003357E-05
   29.8799992      -5.60048902E-05
   30.0000000      -5.74367477E-05
   30.1200008      -5.88959447E-05
   30.2399998      -6.03824701E-05
   30.3600006      -6.18962877E-05
   30.4799995      -6.34373282E-05
   30.6000004      -6.50054426E-05
   30.7199993      -6.66004635E-05
   30.8400002      -6.82221507E-05
   30.9599991      -6.98702424E-05
   31.0799999      -7.15444476E-05
   31.2000008      -7.32444314E-05
   31.3199997      -7.49698374E-05
   31.4400005      -7.67202655E-05
   31.5599995      -7.84952790E-05
   31.6800003      -8.02944051E-05
   31.7999992      -8.21171343E-05
   31.9200001      -8.39628701E-05
   32.0400009      -8.58309868E-05
   32.1599998      -8.77207931E-05
   32.2799988      -8.96315687E-05
   32.4000015      -9.15625205E-05
   32.5200005      -9.35128119E-05
   32.6399994      -9.54815623E-05
   32.7599983      -9.74678260E-05
   32.8800011      -9.94706133E-05
   33.0000000      -1.01488855E-04
   33.1199989      -1.03521445E-04
   33.2400017      -1.05567160E-04
   33.3600006      -1.07624699E-04
   33.4799995      -1.09692679E-04
   33.5999985      -1.11769623E-04
   33.7200012      -1.13853974E-04
   33.8400002      -1.15944153E-04
   33.9599991      -1.18038537E-04
   34.0800018      -1.20135453E-04
   34.2000008      -1.22233207E-04
   34.3199997      -1.24330007E-04
   34.4399986      -1.26423998E-04
   34.5600014      -1.28513231E-04
   34.6800003      -1.30595683E-04
   34.7999992      -1.32669215E-04
   34.9199982      -1.34731657E-04
   35.0400009      -1.36780785E-04
   35.1599998      -1.38814314E-04
   35.2799988      -1.40829929E-04
   35.4000015      -1.42825214E-04
   35.5200005      -1.44797756E-04
   35.6399994      -1.46745006E-04
   35.7599983      -1.48664389E-04
   35.8800011      -1.50553213E-04
   36.0000000      -1.52408742E-04
   36.1199989      -1.54228110E-04
   36.2400017      -1.56008391E-04
   36.3600006      -1.57746617E-04
   36.4799995      -1.59439718E-04
   36.5999985      -1.61084579E-04
   36.7200012      -1.62678072E-04
   36.8400002      -1.64217039E-04
   36.9599991      -1.65698308E-04
   37.0800018      -1.67118676E-04
   37.2000008      -1.68474828E-04
   37.3199997      -1.69763443E-04
   37.4399986      -1.70981060E-04
   37.5600014      -1.72124186E-04
   37.6800003      -1.73189255E-04
   37.7999992      -1.74172703E-04
   37.9199982      -1.75070920E-04
   38.0400009      -1.75880341E-04
   38.1599998      -1.76597372E-04
   38.2799988      -1.77218419E-04
   38.4000015      -1.77739872E-04
   38.5200005      -1.78158138E-04
   38.6399994      -1.78469578E-04
   38.7599983      -1.78670554E-04
   38.8800011      -1.78757415E-04
   39.0000000      -1.78726550E-04
   39.1199989      -1.78574337E-04
   39.2400017      -1.78297152E-04
   39.3600006      -1.77891343E-04
   39.4799995      -1.77353286E-04
   39.5999985      -1.76679387E-04
   39.7200012      -1.75866109E-04
   39.8400002      -1.74910005E-04
   39.9599991      -1.73807668E-04
   40.0800018      -1.72555723E-04
   40.2000008      -1.71150896E-04
   40.3199997      -1.69589941E-04
   40.4399986      -1.67869672E-04
   40.5600014      -1.65987047E-04
   40.6800003      -1.63939025E-04
   40.7999992      -1.61722724E-04
   40.9199982      -1.59335308E-04
   41.0400009      -1.56774055E-04
   41.1599998      -1.54036243E-04
   41.2799988      -1.51119268E-04
   41.4000015      -1.48020641E-04
   41.5200005      -1.44737933E-04
   41.6399994      -1.41268960E-04
   41.7599983      -1.37611642E-04
   41.8800011      -1.33764072E-04
   42.0000000      -1.29724547E-04
   42.1199989      -1.25491482E-04
   42.2400017      -1.21063473E-04
   42.3600006      -1.16439238E-04
   42.4799995      -1.11617650E-04
   42.5999985      -1.06597749E-04
   42.7200012      -1.01378755E-04
   42.8400002      -9.59600438E-05
   42.9599991      -9.03412074E-05
   43.0800018      -8.45219911E-05
   43.2000008      -7.85023512E-05
   43.3199997      -7.22824552E-05
   43.4399986      -6.58626595E-05
   43.5600014      -5.92435572E-05
   43.6800003      -5.24259740E-05
   43.7999992      -4.54109904E-05
   43.9199982      -3.81999416E-05
   44.0400009      -3.07944174E-05
   44.1599998      -2.31962658E-05
   44.2799988      -1.54075242E-05
   44.4000015      -7.43045121E-06
   44.5200005       7.32520959E-07
   44.6399994       9.07873982E-06
   44.7599983       1.76053254E-05
   44.8800011       2.63091479E-05
   45.0000000       3.51868039E-05
   45.1199989       4.42345990E-05
   45.2400017       5.34485553E-05
   45.3600006       6.28244015E-05
   45.4799995       7.23576377E-05
   45.5999985       8.20435380E-05
   45.7200012       9.18771402E-05
   45.8400002       1.01853257E-04
   45.9599991       1.11966510E-04
   46.0800018       1.22211248E-04
   46.2000008       1.32581568E-04
   46.3199997       1.43071316E-04
   46.4399986       1.53673987E-04
   46.5600014       1.64382858E-04
   46.6800003       1.75190959E-04
   46.7999992       1.86091129E-04
   46.9199982       1.97075962E-04
   47.0400009       2.08137906E-04
   47.1599998       2.19269234E-04
   47.2799988       2.30462028E-04
   47.4000015       2.41708098E-04
   47.5200005       2.52999074E-04
   47.6399994       2.64326431E-04
   47.7599983       2.75681377E-04
   47.8800011       2.87055009E-04
   48.0000000       2.98438157E-04
   48.1199989       3.09821538E-04
   48.2400017       3.21195752E-04
   48.3600006       3.32551193E-04
   48.4799995       3.43878317E-04
   48.5999985       3.55167285E-04
   48.7200012       3.66408320E-04
   48.8400002       3.77591525E-04
   48.9599991       3.88706860E-04
   49.0800018       3.99744225E-04
   49.2000008       4.10693436E-04
   49.3199997       4.21544188E-04
   49.4399986       4.32286237E-04
   49.5600014       4.42909310E-04
   49.6800003       4.53402987E-04
   49.7999992       4.63757024E-04
   49.9199982       4.73961059E-04
   50.0400009       4.84004791E-04
   50.1599998       4.93878033E-04
   50.2799988       5.03570656E-04
   50.4000015       5.13072591E-04
   50.5200005       5.22373826E-04
   50.6399994       5.31464582E-04
   50.7599983       5.40335313E-04
   50.8800011       5.48976357E-04
   51.0000000       5.57378517E-04
   51.1199989       5.65532246E-04
   51.2400017       5.73428639E-04
   51.3600006       5.81058557E-04
   51.4799995       5.88413386E-04
   51.5999985       5.95484453E-04
   51.7200012       6.02263608E-04
   51.8400002       6.08742936E-04
   51.9599991       6.14914868E-04
   52.0800018       6.20771840E-04
   52.2000008       6.26306981E-04
   52.3199997       6.31513249E-04
   52.4399986       6.36384182E-04
   52.5600014       6.40913611E-04
   52.6800003       6.45095541E-04
   52.7999992       6.48924499E-04
   52.9199982       6.52395480E-04
   53.0400009       6.55503711E-04
   53.1599998       6.58245001E-04
   53.2799988       6.60615275E-04
   53.4000015       6.62611099E-04
   53.5200005       6.64229214E-04
   53.6399994       6.65466883E-04
   53.7599983       6.66321605E-04
   53.8800011       6.66791690E-04
   54.0000000       6.66875683E-04
   54.1199989       6.66572596E-04
   54.2400017       6.65882137E-04
   54.3600006       6.64804247E-04
   54.4799995       6.63339335E-04
   54.5999985       6.61488564E-04
   54.7200012       6.59253274E-04
   54.8400002       6.56635326E-04
   54.9599991       6.53637049E-04
   55.0800018       6.50261238E-04
   55.2000008       6.46511035E-04
   55.3199997       6.42390107E-04
   55.4399986       6.37902645E-04
   55.5600014       6.33053132E-04
   55.6800003       6.27846865E-04
   55.7999992       6.22289372E-04
   55.9199982       6.16386649E-04
   56.0400009       6.10145216E-04
   56.1599998       6.03571942E-04
   56.2799988       5.96674217E-04
   56.4000015       5.89459669E-04
   56.5200005       5.81936562E-04
   56.6399994       5.74113394E-04
   56.7599983       5.65999129E-04
   56.8800011       5.57602849E-04
   57.0000000       5.48934157E-04
   57.1199989       5.40002831E-04
   57.2400017       5.30818943E-04
   57.3600006       5.21393027E-04
   57.4799995       5.11735794E-04
   57.5999985       5.01858478E-04
   57.7200012       4.91772662E-04
   57.8400002       4.81490075E-04
   57.9599991       4.71022649E-04
   58.0800018       4.60382347E-04
   58.2000008       4.49581392E-04
   58.3199997       4.38632036E-04
   58.4399986       4.27546707E-04
   58.5600014       4.16338211E-04
   58.6800003       4.05019411E-04
   58.7999992       3.93603346E-04
   58.9199982       3.82103084E-04
   59.0400009       3.70531692E-04
   59.1599998       3.58902034E-04
   59.2799988       3.47227120E-04
   59.4000015       3.35519784E-04
   59.5200005       3.23793036E-04
   59.6399994       3.12059827E-04
   59.7599983       3.00333078E-04
   59.8800011       2.88625713E-04
   60.0000000       2.76950450E-04
   60.1199989       2.65319773E-04
   60.2400017       2.53746082E-04
   60.3600006       2.42241411E-04
   60.4799995       2.30817677E-04
   60.5999985       2.19486596E-04
   60.7200012       2.08259735E-04
   60.8400002       1.97148416E-04
   60.9599991       1.86163728E-04
   61.0800018       1.75316440E-04
   61.2000008       1.64616955E-04
   61.3199997       1.54075402E-04
   61.4399986       1.43701545E-04
   61.5600014       1.33504844E-04
   61.6800003       1.23494508E-04
   61.7999992       1.13679387E-04
   61.9199982       1.04067956E-04
   62.0400009       9.46682558E-05
   62.1599998       8.54878745E-05
   62.2799988       7.65339209E-05
   62.4000015       6.78130018E-05
   62.5200005       5.93313525E-05
   62.6399994       5.10947684E-05
   62.7599983       4.31086883E-05
   62.8800011       3.53781616E-05
   63.0000000       2.79078067E-05
   63.1199989       2.07017929E-05
   63.2400017       1.37637999E-05
   63.3600006       7.09701681E-06
   63.4799995       7.04161891E-07
   63.5999985      -5.41248028E-06
   63.7200012      -1.12510215E-05
   63.8400002      -1.68099723E-05
   63.9599991      -2.20882612E-05
   64.0800018      -2.70853070E-05
   64.1999969      -3.18010461E-05
   64.3199997      -3.62359679E-05
   64.4400024      -4.03910853E-05
   64.5599976      -4.42678720E-05
   64.6800003      -4.78681250E-05
   64.8000031      -5.11939324E-05
   64.9199982      -5.42476155E-05
   65.0400009      -5.70317607E-05
   65.1600037      -5.95492929E-05
   65.2799988      -6.18035920E-05
   65.4000015      -6.37984922E-05
   65.5199966      -6.55383337E-05
   65.6399994      -6.70278678E-05
   65.7600021      -6.82721366E-05
   65.8799973      -6.92764297E-05
   66.0000000      -7.00461824E-05
   66.1200027      -7.05870261E-05
   66.2399979      -7.09048327E-05
   66.3600006      -7.10057866E-05
   66.4800034      -7.08963635E-05
   66.5999985      -7.05833954E-05
   66.7200012      -7.00739110E-05
   66.8399963      -6.93750990E-05
   66.9599991      -6.84941624E-05
   67.0800018      -6.74383773E-05
   67.1999969      -6.62150414E-05
   67.3199997      -6.48315763E-05
   67.4400024      -6.32955562E-05
   67.5599976      -6.16147518E-05
   67.6800003      -5.97970648E-05
   67.8000031      -5.78504987E-05
   67.9199982      -5.57830608E-05
   68.0400009      -5.36027073E-05
   68.1600037      -5.13173472E-05
   68.2799988      -4.89348422E-05
   68.4000015      -4.64630648E-05
   68.5199966      -4.39098949E-05
   68.6399994      -4.12832233E-05
   68.7600021      -3.85909079E-05
   68.8799973      -3.58406942E-05
   69.0000000      -3.30401563E-05
   69.1200027      -3.01966920E-05
   69.2399979      -2.73175010E-05
   69.3600006      -2.44096354E-05
   69.4800034      -2.14800330E-05
   69.5999985      -1.85355475E-05
   69.7200012      -1.55829475E-05
   69.8399963      -1.26288824E-05
   69.9599991      -9.67984852E-06
   70.0800018      -6.74214834E-06
   70.1999969      -3.82186590E-06
   70.3199997      -9.24865958E-07
   70.4400024       1.94321137E-06
   70.5599976       4.77694812E-06
   70.6800003       7.57116277E-06
   70.8000031       1.03209295E-05
   70.9199982       1.30215903E-05
   71.0400009       1.56687584E-05
   71.1600037       1.82582971E-05
   71.2799988       2.07862904E-05
   71.4000015       2.32490038E-05
   71.5199966       2.56428702E-05
   71.6399994       2.79645010E-05
   71.7600021       3.02107201E-05
   71.8799973       3.23786116E-05
   72.0000000       3.44655637E-05
   72.1200027       3.64692532E-05
   72.2399979       3.83876613E-05
   72.3600006       4.02189871E-05
   72.4800034       4.19616154E-05
   72.5999985       4.36140872E-05
   72.7200012       4.51751002E-05