  -30.0000000       0.00000000    
  -29.8799992       0.00000000    
  -29.7600002       0.00000000    
  -29.6399994       0.00000000    
  -29.5200005       0.00000000    
  -29.3999996       0.00000000    
  -29.2800007      -1.12103877E-44
  -29.1599998      -1.75162308E-43
  -29.0400009      -1.18129461E-42
  -28.9200001      -2.82501770E-42
  -28.7999992       6.21475869E-42
  -28.6800003       6.99163856E-41
  -28.5599995       2.62353901E-40
  -28.4400005       5.62160306E-40
  -28.3199997       5.09377597E-40
  -28.2000008      -1.13407785E-39
  -28.0799999      -5.89987712E-39
  -27.9599991      -1.32144113E-38
  -27.8400002      -1.64789799E-38
  -27.7199993      -1.76281105E-39
  -27.6000004       4.33383808E-38
  -27.4799995       1.06917481E-37
  -27.3600006       1.29392122E-37
  -27.2399998       1.73616788E-38
  -27.1200008      -2.62818325E-37
  -27.0000000      -5.22945081E-37
  -26.8799992      -2.55849343E-37
  -26.7600002       1.14350753E-36
  -26.6399994       3.63320666E-36
  -26.5200005       5.43352246E-36
  -26.3999996       2.45773276E-36
  -26.2800007      -1.02906854E-35
  -26.1599998      -3.42237173E-35
  -26.0400009      -6.03441230E-35
  -25.9200001      -6.41571845E-35
  -25.7999992      -9.36311671E-36
  -25.6800003       1.33060508E-34
  -25.5599995       3.50524586E-34
  -25.4400005       5.52494329E-34
  -25.3199997       5.59726742E-34
  -25.2000008       1.51851336E-34
  -25.0799999      -8.09268443E-34
  -24.9599991      -2.20358777E-33
  -24.8400002      -3.50352381E-33
  -24.7199993      -3.77406200E-33
  -24.6000004      -1.93859222E-33
  -24.4799995       2.66001111E-33
  -24.3600006       9.53783921E-33
  -24.2399998       1.65119796E-32
  -24.1200008       1.97451915E-32
  -24.0000000       1.47606958E-32
  -23.8799992      -1.53068788E-33
  -23.7600002      -2.82861263E-32
  -23.6399994      -5.87311714E-32
  -23.5200005      -8.00700143E-32
  -23.3999996      -7.64105946E-32
  -23.2800007      -3.48405535E-32
  -23.1599998       4.67317338E-32
  -23.0400009       1.52915429E-31
  -22.9200001       2.49128583E-31
  -22.7999992       2.87978954E-31
  -22.6800003       2.24447199E-31
  -22.5599995       3.67975018E-32
  -22.4400005      -2.53759467E-31
  -22.3199997      -5.73858192E-31
  -22.2000008      -8.07343532E-31
  -22.0799999      -8.26229589E-31
  -21.9599991      -5.38066411E-31
  -21.8400002       6.41814156E-32
  -21.7199993       8.69259359E-31
  -21.6000004       1.65045726E-30
  -21.4799995       2.11414803E-30
  -21.3600006       1.98882040E-30
  -21.2399998       1.13214729E-30
  -21.1200008      -3.79350318E-31
  -21.0000000      -2.21609405E-30
  -20.8799992      -3.84360886E-30
  -20.7600002      -4.65616209E-30
  -20.6399994      -4.16859111E-30
  -20.5200005      -2.21185775E-30
  -20.3999996       9.35534576E-31
  -20.2800007       4.53992394E-30
  -20.1599998       7.55715801E-30
  -20.0400009       8.91049695E-30
  -19.9200001       7.83281877E-30
  -19.7999992       4.16963005E-30
  -19.6800003      -1.46468110E-30
  -19.5599995      -7.75173712E-30
  -19.4400005      -1.29654762E-29
  -19.3199997      -1.54337586E-29
  -19.2000008      -1.40364844E-29
  -19.0799999      -8.58654876E-30
  -18.9599991       3.43478832E-32
  -18.8400002       1.00414572E-29
  -18.7199993       1.91746413E-29
  -18.6000004       2.52595673E-29
  -18.4799995       2.67243423E-29
  -18.3600006       2.29037863E-29
  -18.2399998       1.40371464E-29
  -18.1200008       9.86062496E-31
  -18.0000000      -1.51675198E-29
  -17.8799992      -3.33870248E-29
  -17.7600002      -5.25472592E-29
  -17.6399994      -7.07638601E-29
  -17.5200005      -8.43182542E-29
  -17.3999996      -8.66716202E-29
  -17.2800007      -6.83883399E-29
  -17.1599998      -1.88898248E-29
  -17.0400009       6.93660744E-29
  -16.9200001       1.94547705E-28
  -16.7999992       3.38529493E-28
  -16.6800003       4.62346205E-28
  -16.5599995       5.07808167E-28
  -16.4400005       4.08625423E-28
  -16.3199997       1.12153100E-28
  -16.2000008      -3.91153555E-28
  -16.0799999      -1.03849137E-27
  -15.9600000      -1.67793950E-27
  -15.8400002      -2.07794398E-27
  -15.7200003      -1.97340181E-27
  -15.6000004      -1.14921193E-27
  -15.4799995       4.52557233E-28
  -15.3599997       2.63237068E-27
  -15.2399998       4.88304361E-27
  -15.1199999       6.43465713E-27
  -15.0000000       6.42391314E-27
  -14.8800001       4.18176475E-27
  -14.7600002      -4.17850290E-28
  -14.6400003      -6.65875487E-27
  -14.5200005      -1.28781612E-26
  -14.3999996      -1.66948143E-26
  -14.2799997      -1.56383062E-26
  -14.1599998      -8.11556372E-27
  -14.0400000       5.52225514E-27
  -13.9200001       2.22100691E-26
  -13.8000002       3.61686593E-26
  -13.6800003       4.00595924E-26
  -13.5600004       2.73873740E-26
  -13.4399996      -4.24108840E-27
  -13.3199997      -4.99541793E-26
  -13.1999998      -9.59567262E-26
  -13.0799999      -1.20874469E-25
  -12.9600000      -1.01113830E-25
  -12.8400002      -2.00830520E-26
  -12.7200003       1.20590270E-25
  -12.6000004       2.91543343E-25
  -12.4799995       4.32827863E-25
  -12.3599997       4.62572997E-25
  -12.2399998       2.99835134E-25
  -12.1199999      -1.00119403E-25
  -12.0000000      -7.05930867E-25
  -11.8800001      -1.37963785E-24
  -11.7600002      -1.87330602E-24
  -11.6400003      -1.86921301E-24
  -11.5200005      -1.07135732E-24
  -11.3999996       6.60349202E-25
  -11.2799997       3.16364580E-24
  -11.1599998       5.86716797E-24
  -11.0400000       7.78787073E-24
  -10.9200001       7.69114139E-24
  -10.8000002       4.44005943E-24
  -10.6800003      -2.49928766E-24
  -10.5600004      -1.25081517E-23
  -10.4399996      -2.34104524E-23
  -10.3199997      -3.14486847E-23
  -10.1999998      -3.18569202E-23
  -10.0799999      -2.01358687E-23
  -9.96000004       6.07561737E-24
  -9.84000015       4.49198068E-23
  -9.72000027       8.87023411E-23
  -9.60000038       1.23593211E-22
  -9.47999954       1.31463771E-22
  -9.35999966       9.43164370E-23
  -9.23999977       1.04740888E-24
  -9.11999989      -1.44710424E-22
  -9.00000000      -3.17967995E-22
  -8.88000011      -4.70043868E-22
  -8.76000023      -5.33611770E-22
  -8.64000034      -4.37177576E-22
  -8.52000046      -1.28705762E-22
  -8.39999962       3.95303248E-22
  -8.27999973       1.06282349E-21
  -8.15999985       1.71207121E-21
  -8.03999996       2.10165591E-21
  -7.92000008       1.95411019E-21
  -7.80000019       1.03468531E-21
  -7.67999983      -7.44019376E-22
  -7.55999994      -3.21477061E-21
  -7.44000006      -5.88154617E-21
  -7.32000017      -7.92091595E-21
  -7.19999981      -8.29676372E-21
  -7.07999992      -6.00639107E-21
  -6.96000004      -4.40425562E-22
  -6.84000015       8.20832971E-21
  -6.71999979       1.86006133E-20
  -6.59999990       2.81190097E-20
  -6.48000002       3.30988018E-20
  -6.36000013       2.95244025E-20
  -6.23999977       1.41907261E-20
  -6.11999989      -1.38249846E-20
  -6.00000000      -5.17126791E-20
  -5.88000011      -9.19862646E-20
  -5.76000023      -1.22603922E-19
  -5.63999987      -1.28631548E-19
  -5.51999998      -9.56617253E-20
  -5.40000010      -1.47370078E-20
  -5.28000021       1.12075166E-19
  -5.15999985       2.66924230E-19
  -5.03999996       4.14141467E-19
  -4.92000008       5.02878198E-19
  -4.80000019       4.75816622E-19
  -4.67999983       2.84107176E-19
  -4.55999994      -9.31851530E-20
  -4.44000006      -6.29050280E-19
  -4.32000017      -1.23385528E-18
  -4.19999981      -1.75306972E-18
  -4.07999992      -1.98390481E-18
  -3.96000004      -1.71460934E-18
  -3.83999991      -7.84992437E-19
  -3.72000003       8.40335783E-19
  -3.59999990       3.00225327E-18
  -3.48000002       5.30353260E-18
  -3.35999990       7.11641844E-18
  -3.24000001       7.66253549E-18
  -3.11999989       6.17444295E-18
  -3.00000000       2.12823066E-18
  -2.88000011      -4.48902523E-18
  -2.75999999      -1.29394697E-17
  -2.64000010      -2.16046308E-17
  -2.51999998      -2.80524772E-17
  -2.40000010      -2.93699741E-17
  -2.27999997      -2.27837470E-17
  -2.16000009      -6.51926642E-18
  -2.03999996       1.92405900E-17
  -1.91999996       5.15252028E-17
  -1.79999995       8.41642774E-17
  -1.67999995       1.08092588E-16
  -1.55999994       1.12598207E-16
  -1.44000006       8.75764437E-17
  -1.32000005       2.66012385E-17
  -1.20000005      -6.96793258E-17
  -1.08000004      -1.90612972E-16
 -0.959999979      -3.14074920E-16
 -0.839999974      -4.07479890E-16
 -0.720000029      -4.32050860E-16
 -0.600000024      -3.50572828E-16
 -0.479999989      -1.38025911E-16
 -0.360000014       2.06519656E-16
 -0.239999995       6.49359492E-16
 -0.119999997       1.11628852E-15
  -1.11022302E-15   1.49487085E-15
  0.119999997       1.64759587E-15
  0.239999995       1.43696980E-15
  0.360000014       7.60954230E-16
  0.479999989      -4.06111323E-16
  0.600000024      -1.97528316E-15
  0.720000029      -3.71821587E-15
  0.839999974      -5.26737179E-15
  0.959999979      -6.15110244E-15
   1.08000004      -5.86866312E-15
   1.20000005      -4.00231157E-15
   1.32000005      -3.53489110E-16
   1.44000006       4.92076337E-15
   1.55999994       1.12041215E-14
   1.67999995       1.73875230E-14
   1.79999995       2.19407266E-14
   1.91999996       2.31116362E-14
   2.03999996       1.92544429E-14
   2.16000009       9.25775671E-15
   2.27999997      -6.98991705E-15
   2.40000010      -2.81913334E-14
   2.51999998      -5.14031295E-14
   2.64000010      -7.20866238E-14
   2.75999999      -8.45395328E-14
   2.88000011      -8.27481597E-14
   3.00000000      -6.16191736E-14
   3.11999989      -1.84515607E-14
   3.24000001       4.55921616E-14
   3.35999990       1.24338379E-13
   3.48000002       2.06140863E-13
   3.59999990       2.74440762E-13
   3.72000003       3.09575987E-13
   3.83999991       2.91876197E-13
   3.96000004       2.05818300E-13
   4.07999992       4.47202564E-14
   4.19999981      -1.84830694E-13
   4.32000017      -4.59820658E-13
   4.44000006      -7.39984463E-13
   4.55999994      -9.70230298E-13
   4.67999983      -1.08685229E-12
   4.80000019      -1.02747064E-12
   4.92000008      -7.43867641E-13
   5.03999996      -2.16066490E-13
   5.15999985       5.34748894E-13
   5.28000021       1.43734829E-12
   5.40000010       2.36853787E-12
   5.51999998       3.16063517E-12
   5.63999987       3.61965449E-12
   5.76000023       3.55383735E-12
   5.88000011       2.81010089E-12
   6.00000000       1.31382654E-12
   6.11999989      -8.94483110E-13
   6.23999977      -3.63328985E-12
   6.36000013      -6.57250990E-12
   6.48000002      -9.25071391E-12
   6.59999990      -1.11204917E-11
   6.71999979      -1.16212161E-11
   6.84000015      -1.02733828E-11
   6.96000004      -6.78338505E-12
   7.07999992      -1.14303955E-12
   7.19999981       6.29467268E-12
   7.32000017       1.47824860E-11
   7.44000006       2.32041695E-11
   7.55999994       3.01677988E-11
   7.67999983       3.41670373E-11
   7.80000019       3.37989983E-11
   7.92000008       2.80154320E-11
   8.03999996       1.63732101E-11
   8.15999985      -7.56699065E-13
   8.27999973      -2.20643954E-11
   8.39999962      -4.52977447E-11
   8.52000046      -6.74059142E-11
   8.64000034      -8.48362769E-11
   8.76000023      -9.39681527E-11
   8.88000011      -9.16420898E-11
   9.00000000      -7.57208740E-11
   9.11999989      -4.56023622E-11
   9.23999977      -2.59778830E-12
   9.35999966       4.99045423E-11
   9.47999954       1.06550414E-10
   9.60000038       1.60434138E-10
   9.72000027       2.03802905E-10
   9.84000015       2.28992589E-10
   9.96000004       2.29493244E-10
   10.0799999       2.01009681E-10
   10.1999998       1.42364329E-10
   10.3199997       5.60936228E-11
   10.4399996      -5.13851253E-11
   10.5600004      -1.70111633E-10
   10.6800003      -2.87436214E-10
   10.8000002      -3.89326876E-10
   10.9200001      -4.61995886E-10
   11.0400000      -4.93652896E-10
   11.1599998      -4.76155393E-10
   11.2799997      -4.06321143E-10
   11.3999996      -2.86694862E-10
   11.5200005      -1.25623539E-10
   11.6400003       6.34180625E-11
   11.7600002       2.63207289E-10
   11.8800001       4.54710380E-10
   12.0000000       6.19336415E-10
   12.1199999       7.41208150E-10
   12.2399998       8.09127598E-10
   12.3599997       8.17938772E-10
   12.4799995       7.69057096E-10
   12.6000004       6.70041911E-10
   12.7200003       5.33219746E-10
   12.8400002       3.73501979E-10
   12.9600000       2.05665568E-10
   13.0799999       4.14642036E-11
   13.1999998      -1.13011767E-10
   13.3199997      -2.59304550E-10
   13.4399996      -4.07510303E-10
   13.5600004      -5.75873516E-10
   13.6800003      -7.88897947E-10
   13.8000002      -1.07396170E-09
   13.9200001      -1.45658174E-09
   14.0400000      -1.95461003E-09
   14.1599998      -2.57176924E-09
   14.2799997      -3.29106231E-09
   14.3999996      -4.06866496E-09
   14.5200005      -4.82901541E-09
   14.6400003      -5.46186429E-09
   14.7600002      -5.82213167E-09
   14.8800001      -5.73344172E-09
   15.0000000      -4.99619146E-09
   15.1199999      -3.40095196E-09
   15.2399998      -7.47735207E-10
   15.3599997       3.12863779E-09
   15.4799995       8.32743119E-09
   15.6000004       1.48462558E-08
   15.7200003       2.25427623E-08
   15.8400002       3.10969135E-08
   15.9600000       3.99781790E-08
   16.0799999       4.84229865E-08
   16.2000008       5.54287283E-08
   16.3199997       5.97708620E-08
   16.4400005       6.00497074E-08
   16.5599995       5.47723289E-08
   16.6800003       4.24732072E-08
   16.7999992       2.18748113E-08
   16.9200001      -7.91469468E-09
   17.0400009      -4.71732875E-08
   17.1599998      -9.53180148E-08
   17.2800007      -1.50654941E-07
   17.3999996      -2.10146581E-07
   17.5200005      -2.69220038E-07
   17.6399994      -3.21641409E-07
   17.7600002      -3.59481277E-07
   17.8799992      -3.73194950E-07
   18.0000000      -3.51835098E-07
   18.1200008      -2.83408980E-07
   18.2399998      -1.55382466E-07
   18.3600006       4.46773676E-08
   18.4799995       3.28340462E-07
   18.6000004       7.05464402E-07
   18.7199993       1.18330036E-06
   18.8400002       1.76560479E-06
   18.9599991       2.45181695E-06
   19.0799999       3.23636164E-06
   19.2000008       4.10813891E-06
   19.3199997       5.05025537E-06
   19.4400005       6.04004299E-06
   19.5599995       7.04939384E-06
   19.6800003       8.04542924E-06
   19.7999992       8.99149836E-06
   19.9200001       9.84847338E-06
   20.0400009       1.05762974E-05
   20.1599998       1.11357294E-05
   20.2800007       1.14901777E-05
   20.3999996       1.16075616E-05
   20.5200005       1.14620698E-05
   20.6399994       1.10357405E-05
   20.7600002       1.03197435E-05
   20.8799992       9.31530758E-06
   21.0000000       8.03421062E-06
   21.1200008       6.49879166E-06
   21.2399998       4.74147510E-06
   21.3600006       2.80381232E-06
   21.4799995       7.35078515E-07
   21.6000004      -1.40951386E-06
   21.7199993      -3.57090039E-06
   21.8400002      -5.68844689E-06
   21.9599991      -7.70232145E-06
   22.0799999      -9.55583710E-06
   22.2000008      -1.11976451E-05
   22.3199997      -1.25836996E-05
   22.4400005      -1.36788694E-05
   22.5599995      -1.44581563E-05
   22.6800003      -1.49074531E-05
   22.7999992      -1.50238366E-05
   22.9200001      -1.48153813E-05
   23.0400009      -1.43005291E-05
   23.1599998      -1.35070622E-05
   23.2800007      -1.24707394E-05
   23.3999996      -1.12336729E-05
   23.5200005      -9.84253347E-06
   23.6399994      -8.34667026E-06
   23.7600002      -6.79622417E-06
   23.8799992      -5.24032384E-06
   24.0000000      -3.72541922E-06
   24.1200008      -2.29382090E-06
   24.2399998      -9.82478696E-07
   24.3600006       1.77970236E-07
   24.4799995       1.16386843E-06
   24.6000004       1.95892198E-06
   24.7199993       2.55431019E-06
   24.8400002       2.94853839E-06
   24.9599991       3.14705994E-06
   25.0799999       3.16169849E-06
   25.2000008       3.00989905E-06
   25.3199997       2.71384238E-06
   25.4400005       2.29945999E-06
   25.5599995       1.79537062E-06
   25.6800003       1.23178449E-06
   25.7999992       6.39390805E-07
   25.9200001       4.82668661E-08
   26.0400009      -5.13165787E-07
   26.1599998      -1.01910905E-06
   26.2800007      -1.44725107E-06
   26.3999996      -1.77949823E-06
   26.5200005      -2.00254954E-06
   26.6399994      -2.10829057E-06
   26.7600002      -2.09399127E-06
   26.8799992      -1.96229189E-06
   27.0000000      -1.72097668E-06
   27.1200008      -1.38253733E-06
   27.2399998      -9.63541083E-07
   27.3600006      -4.83828444E-07
   27.4799995       3.44281332E-08
   27.6000004       5.67759798E-07
   27.7199993       1.09248458E-06
   27.8400002       1.58578530E-06
   27.9599991       2.02672823E-06
   28.0799999       2.39717292E-06
   28.2000008       2.68252711E-06
   28.3199997       2.87231023E-06
   28.4400005       2.96050234E-06
   28.5599995       2.94566325E-06
   28.6800003       2.83082841E-06
   28.7999992       2.62319008E-06
   28.9200001       2.33359310E-06
   29.0400009       1.97588315E-06
   29.1599998       1.56614567E-06
   29.2800007       1.12188513E-06
   29.3999996       6.61191052E-07
   29.5200005       2.01933389E-07
   29.6399994      -2.38971353E-07
   29.7600002      -6.46194849E-07
   29.8799992      -1.00650902E-06
   30.0000000      -1.30916408E-06
   30.1200008      -1.54612906E-06
   30.2399998      -1.71220108E-06
   30.3600006      -1.80499467E-06
   30.4799995      -1.82482836E-06
   30.6000004      -1.77452671E-06
   30.7199993      -1.65915924E-06
   30.8400002      -1.48573451E-06
   30.9599991      -1.26286432E-06
   31.0799999      -1.00041325E-06
   31.2000008      -7.09144729E-07
   31.3199997      -4.00367043E-07
   31.4400005      -8.55871036E-08
   31.5599995       2.23826689E-07
   31.6800003       5.16970942E-07
   31.7999992       7.83720850E-07
   31.9200001       1.01502781E-06
   32.0400009       1.20319658E-06
   32.1599998       1.34213496E-06
   32.2799988       1.42756858E-06
   32.4000015       1.45720901E-06
   32.5200005       1.43086822E-06
   32.6399994       1.35050675E-06
   32.7599983       1.22020879E-06
   32.8800011       1.04607943E-06
   33.0000000       8.36057552E-07
   33.1199989       5.99650093E-07
   33.2400017       3.47589548E-07
   33.3600006       9.14254628E-08
   33.4799995      -1.56937219E-07
   33.5999985      -3.85735177E-07
   33.7200012      -5.83859503E-07
   33.8400002      -7.41361589E-07
   33.9599991      -8.49929904E-07
   34.0800018      -9.03314060E-07
   34.2000008      -8.97674511E-07
   34.3199997      -8.31839827E-07
   34.4399986      -7.07454262E-07
   34.5600014      -5.29004183E-07
   34.6800003      -3.03715723E-07
   34.7999992      -4.13204866E-08
   34.9199982       2.46307621E-07
   35.0400009       5.45635999E-07
   35.1599998       8.42063457E-07
   35.2799988       1.12059536E-06
   35.4000015       1.36657934E-06
   35.5200005       1.56646865E-06
   35.6399994       1.70857902E-06
   35.7599983       1.78379878E-06
   35.8800011       1.78621281E-06
   36.0000000       1.71360114E-06
   36.1199989       1.56777230E-06
   36.2400017       1.35470236E-06
   36.3600006       1.08445113E-06
   36.4799995       7.70844167E-07
   36.5999985       4.30916913E-07
   36.7200012       8.41345908E-08
   36.8400002      -2.48584769E-07
   36.9599991      -5.46000592E-07
   37.0800018      -7.87775775E-07
   37.2000008      -9.55730570E-07
   37.3199997      -1.03504760E-06
   37.4399986      -1.01534943E-06
   37.5600014      -8.91572427E-07
   37.6800003      -6.64568859E-07
   37.7999992      -3.41382389E-07
   37.9199982       6.48375433E-08
   38.0400009       5.35296465E-07
   38.1599998       1.04637832E-06
   38.2799988       1.57079501E-06
   38.4000015       2.07900143E-06
   38.5200005       2.54079555E-06
   38.6399994       2.92700656E-06
   38.7599983       3.21117068E-06
   38.8800011       3.37108872E-06
   39.0000000       3.39016606E-06
   39.1199989       3.25845690E-06
   39.2400017       2.97334532E-06
   39.3600006       2.53982626E-06
   39.4799995       1.97037275E-06
   39.5999985       1.28440274E-06
   39.7200012       5.07388506E-07
   39.8400002      -3.30336917E-07
   39.9599991      -1.19499703E-06
   40.0800018      -2.05092874E-06
   40.2000008      -2.86219165E-06
   40.3199997      -3.59414253E-06
   40.4399986      -4.21490222E-06
   40.5600014      -4.69665292E-06
   40.6800003      -5.01671229E-06
   40.7999992      -5.15836291E-06
   40.9199982      -5.11141616E-06
   41.0400009      -4.87251282E-06
   41.1599998      -4.44517173E-06
   41.2799988      -3.83960787E-06
   41.4000015      -3.07233972E-06
   41.5200005      -2.16562239E-06
   41.6399994      -1.14672150E-06
   41.7599983      -4.70629651E-08
   41.8800011       1.09872224E-06
   42.0000000       2.25383724E-06
   42.1199989       3.38042037E-06
   42.2400017       4.44068655E-06
   42.3600006       5.39808570E-06
   42.4799995       6.21845220E-06
   42.5999985       6.87111606E-06
   42.7200012       7.32994158E-06
   42.8400002       7.57426005E-06
   42.9599991       7.58966416E-06
   43.0800018       7.36863103E-06
   43.2000008       6.91094510E-06
   43.3199997       6.22389416E-06
   43.4399986       5.32223794E-06
   43.5600014       4.22792618E-06
   43.6800003       2.96958410E-06
   43.7999992       1.58176613E-06
   43.9199982       1.04007547E-07
   44.0400009      -1.42030626E-06
   44.1599998      -2.94521783E-06
   44.2799988      -4.42358987E-06
   44.4000015      -5.80857295E-06
   44.5200005      -7.05511411E-06
   44.6399994      -8.12145754E-06
   44.7599983      -8.97061182E-06
   44.8800011      -9.57172415E-06
   45.0000000      -9.90132503E-06
   45.1199989      -9.94440052E-06
   45.2400017      -9.69522807E-06
   45.3600006      -9.15794772E-06
   45.4799995      -8.34680668E-06
   45.5999985      -7.28603300E-06
   45.7200012      -6.00932617E-06
   45.8400002      -4.55892632E-06
   45.9599991      -2.98427153E-06
   46.0800018      -1.34027164E-06
   46.2000008       3.14763099E-07
   46.3199997       1.92145876E-06
   46.4399986       3.42188491E-06
   46.5600014       4.76211108E-06
   46.6800003       5.89468073E-06
   46.7999992       6.78086371E-06
   46.9199982       7.39254438E-06
   47.0400009       7.71362375E-06
   47.1599998       7.74083219E-06
   47.2799988       7.48388447E-06
   47.4000015       6.96494135E-06
   47.5200005       6.21739991E-06
   47.6399994       5.28405963E-06
   47.7599983       4.21477580E-06
   47.8800011       3.06373386E-06
   48.0000000       1.88650949E-06
   48.1199989       7.37096798E-07
   48.2400017      -3.34908577E-07
   48.3600006      -1.28680324E-06
   48.4799995      -2.08479105E-06
   48.5999985      -2.70540522E-06
   48.7200012      -3.13626401E-06
   48.8400002      -3.37612914E-06
   48.9599991      -3.43429383E-06
   49.0800018      -3.32935815E-06
   49.2000008      -3.08750350E-06
   49.3199997      -2.74039485E-06
   49.4399986      -2.32286834E-06
   49.5600014      -1.87056025E-06
   49.6800003      -1.41763462E-06
   49.7999992      -9.94750962E-07
   49.9199982      -6.27383656E-07
   50.0400009      -3.34584399E-07
   50.1599998      -1.28234220E-07
   50.2799988      -1.28042759E-08
   50.4000015       1.43935717E-08
   50.5200005      -3.74868989E-08
   50.6399994      -1.53891122E-07
   50.7599983      -3.16209935E-07
   50.8800011      -5.03306296E-07
   51.0000000      -6.93118182E-07
   51.1199989      -8.64235119E-07
   51.2400017      -9.97354164E-07
   51.3600006      -1.07653432E-06
   51.4799995      -1.09018129E-06
   51.5999985      -1.03171760E-06
   51.7200012      -8.99906013E-07
   51.8400002      -6.98821339E-07
   51.9599991      -4.37478604E-07
   52.0800018      -1.29148759E-07
   52.2000008       2.09590596E-07
   52.3199997       5.60007379E-07
   52.4399986       9.02494662E-07
   52.5600014       1.21789458E-06
   52.6800003       1.48877677E-06
   52.7999992       1.70058513E-06
   52.9199982       1.84257101E-06
   53.0400009       1.90844617E-06
   53.1599998       1.89670618E-06
   53.2799988       1.81059693E-06
   53.4000015       1.65773019E-06
   53.5200005       1.44937462E-06
   53.6399994       1.19948356E-06
   53.7599983       9.23540711E-07
   53.8800011       6.37320056E-07
   54.0000000       3.55670352E-07
   54.1199989       9.14289942E-08
   54.2400017      -1.45440268E-07
   54.3600006      -3.48409856E-07
   54.4799995      -5.14605460E-07
   54.5999985      -6.44664226E-07
   54.7200012      -7.42256020E-07
   54.8400002      -8.13321662E-07
   54.9599991      -8.65113236E-07
   55.0800018      -9.05137540E-07
   55.2000008      -9.40115513E-07
   55.3199997      -9.75067451E-07
   55.4399986      -1.01262071E-06
   55.5600014      -1.05261006E-06
   55.6800003      -1.09201574E-06
   55.7999992      -1.12524128E-06
   55.9199982      -1.14470583E-06
   56.0400009      -1.14168722E-06
   56.1599998      -1.10732867E-06
   56.2799988      -1.03370837E-06
   56.4000015      -9.14857594E-07
   56.5200005      -7.47628121E-07
   56.6399994      -5.32314971E-07
   56.7599983      -2.72972869E-07
   56.8800011       2.26100703E-08
   57.0000000       3.43281698E-07
   57.1199989       6.75206081E-07
   57.2400017       1.00279374E-06
   57.3600006       1.30979743E-06
   57.4799995       1.58047692E-06
   57.5999985       1.80072971E-06
   57.7200012       1.95909229E-06
   57.8400002       2.04753246E-06
   57.9599991       2.06196978E-06
   58.0800018       2.00249383E-06
   58.2000008       1.87327180E-06
   58.3199997       1.68216411E-06
   58.4399986       1.44009346E-06
   58.5600014       1.16022420E-06
   58.6800003       8.57025157E-07
   58.7999992       5.45288344E-07
   58.9199982       2.39178746E-07
   59.0400009      -4.86206275E-08
   59.1599998      -3.07616205E-07
   59.2799988      -5.30023101E-07
   59.4000015      -7.11075529E-07
   59.5200005      -8.49119090E-07
   59.6399994      -9.45492218E-07
   59.7599983      -1.00421551E-06
   59.8800011      -1.03151694E-06
   60.0000000      -1.03522768E-06
   60.1199989      -1.02409035E-06
   60.2400017      -1.00702061E-06
   60.3600006      -9.92367291E-07
   60.4799995      -9.87212502E-07
   60.5999985      -9.96753556E-07
   60.7200012      -1.02380284E-06
   60.8400002      -1.06843913E-06
   60.9599991      -1.12783584E-06
   61.0800018      -1.19628646E-06
   61.2000008      -1.26543853E-06
   61.3199997      -1.32473576E-06
   61.4399986      -1.36206131E-06
   61.5600014      -1.36455628E-06
   61.6800003      -1.31958120E-06
   61.7999992      -1.21576920E-06
   61.9199982      -1.04411072E-06
   62.0400009      -7.98996098E-07
   62.1599998      -4.79137270E-07
   62.2799988      -8.82864555E-08
   62.4000015       3.64326752E-07
   62.5200005       8.63907076E-07
   62.6399994       1.39040401E-06
   62.7599983       1.91924391E-06
   62.8800011       2.42247688E-06
   63.0000000       2.87029866E-06
   63.1199989       3.23286167E-06
   63.2400017       3.48227377E-06
   63.3600006       3.59463911E-06
   63.4799995       3.55198722E-06
   63.5999985       3.34393417E-06
   63.7200012       2.96891926E-06
   63.8400002       2.43489876E-06
   63.9599991       1.75940431E-06
   64.0800018       9.68930294E-07
   64.1999969       9.76580807E-08
   64.3199997      -8.14406633E-07
   64.4400024      -1.72376713E-06
   64.5599976      -2.58607520E-06
   64.6800003      -3.35888490E-06
   64.8000031      -4.00431327E-06
   64.9199982      -4.49141044E-06
   65.0400009      -4.79804885E-06
   65.1600037      -4.91219998E-06
   65.2799988      -4.83249869E-06
   65.4000015      -4.56805446E-06
   65.5199966      -4.13753969E-06
   65.6399994      -3.56763530E-06
   65.7600021      -2.89096829E-06
   65.8799973      -2.14371425E-06
   66.0000000      -1.36305846E-06
   66.1200027      -5.84725626E-07
   66.2399979       1.59234531E-07
   66.3600006       8.42236943E-07
   66.4800034       1.44440207E-06
   66.5999985       1.95317648E-06
   66.7200012       2.36331334E-06
   66.8399963       2.67625774E-06
   66.9599991       2.89902255E-06
   67.0800018       3.04268883E-06
   67.1999969       3.12069255E-06
   67.3199997       3.14706381E-06
   67.4400024       3.13479200E-06
   67.5599976       3.09445659E-06
   67.6800003       3.03323850E-06
   67.8000031       2.95438531E-06
   67.9199982       2.85715305E-06
   68.0400009       2.73720502E-06
   68.1600037       2.58740556E-06
   68.2799988       2.39892165E-06
   68.4000015       2.16250919E-06
   68.5199966       1.86986949E-06
   68.6399994       1.51495090E-06
   68.7600021       1.09508358E-06
   68.8799973       6.11859321E-07
   69.0000000       7.16838287E-08
   69.1200027      -5.14037879E-07
   69.2399979      -1.12910107E-06
   69.3600006      -1.75307821E-06
   69.4800034      -2.36223991E-06
   69.5999985      -2.93077255E-06
   69.7200012      -3.43221768E-06
   69.8399963      -3.84105442E-06
   69.9599991      -4.13432554E-06
   70.0800018      -4.29320562E-06
   70.1999969      -4.30440696E-06
   70.3199997      -4.16131343E-06
   70.4400024      -3.86475631E-06
   70.5599976      -3.42334965E-06
   70.6800003      -2.85334022E-06
   70.8000031      -2.17794332E-06
   70.9199982      -1.42619217E-06
   71.0400009      -6.31351213E-07
   71.1600037       1.71007571E-07
   71.2799988       9.45137742E-07
   71.4000015       1.65730398E-06
   71.5199966       2.27785358E-06
   71.6399994       2.78300763E-06
   71.7600021       3.15622310E-06
   71.8799973       3.38900986E-06
   72.0000000       3.48113304E-06
   72.1200027       3.44018258E-06
   72.2399979       3.28055376E-06
   72.3600006       3.02193507E-06
   72.4800034       2.68744611E-06
   72.5999985       2.30160526E-06
   72.7200012       1.88831882E-06