  -30.0000000       0.00000000    
  -29.8799992       0.00000000    
  -29.7600002       0.00000000    
  -29.6399994       0.00000000    
  -29.5200005       0.00000000    
  -29.3999996      -0.00000000    
  -29.2800007      -2.24207754E-44
  -29.1599998      -6.75425860E-43
  -29.0400009      -2.26449832E-42
  -28.9200001       2.58133190E-41
  -28.7999992       3.33445976E-40
  -28.6800003       1.92774808E-39
  -28.5599995       7.18565814E-39
  -28.4400005       1.86298791E-38
  -28.3199997       3.20125289E-38
  -28.2000008       2.14909228E-38
  -28.0799999      -7.48421178E-38
  -27.9599991      -3.42654469E-37
  -27.8400002      -8.15432392E-37
  -27.7199993      -1.32154696E-36
  -27.6000004      -1.31384246E-36
  -27.4799995       1.60249208E-37
  -27.3600006       4.13926939E-36
  -27.2399998       1.09618794E-35
  -27.1200008       1.91804188E-35
  -27.0000000       2.47306218E-35
  -26.8799992       2.11427754E-35
  -26.7600002       1.25810809E-36
  -26.6399994      -4.01497414E-35
  -26.5200005      -1.04719947E-34
  -26.3999996      -1.91554243E-34
  -26.2800007      -2.99148642E-34
  -26.1599998      -4.19312105E-34
  -26.0400009      -5.08692655E-34
  -25.9200001      -4.30922362E-34
  -25.7999992       1.05642596E-34
  -25.6800003       1.53524916E-33
  -25.5599995       4.22347259E-33
  -25.4400005       7.96431145E-33
  -25.3199997       1.12648851E-32
  -25.2000008       1.08125850E-32
  -25.0799999       1.84287631E-33
  -24.9599991      -1.98300005E-32
  -24.8400002      -5.39182919E-32
  -24.7199993      -9.09864660E-32
  -24.6000004      -1.09724874E-31
  -24.4799995      -7.99413859E-32
  -24.3600006       2.57824320E-32
  -24.2399998       2.12365468E-31
  -24.1200008       4.40817905E-31
  -24.0000000       6.17247852E-31
  -23.8799992       6.06255804E-31
  -23.7600002       2.77164476E-31
  -23.6399994      -4.22351406E-31
  -23.5200005      -1.38930746E-30
  -23.3999996      -2.32437250E-30
  -23.2800007      -2.76752672E-30
  -23.1599998      -2.23190981E-30
  -23.0400009      -4.18258711E-31
  -22.9200001       2.55477579E-30
  -22.7999992       6.00413061E-30
  -22.6800003       8.72102908E-30
  -22.5599995       9.25254963E-30
  -22.4400005       6.39978019E-30
  -22.3199997      -1.93646437E-31
  -22.2000008      -9.56757234E-30
  -22.0799999      -1.93113101E-29
  -21.9599991      -2.59351263E-29
  -21.8400002      -2.57755811E-29
  -21.7199993      -1.62794058E-29
  -21.6000004       2.66832817E-30
  -21.4799995       2.78219749E-29
  -21.3600006       5.25121471E-29
  -21.2399998       6.77555756E-29
  -21.1200008       6.45729343E-29
  -21.0000000       3.71680164E-29
  -20.8799992      -1.37866401E-29
  -20.7600002      -7.88385863E-29
  -20.6399994      -1.39611817E-28
  -20.5200005      -1.71793830E-28
  -20.3999996      -1.51559974E-28
  -20.2800007      -6.46686048E-29
  -20.1599998       8.38678213E-29
  -20.0400009       2.62869023E-28
  -19.9200001       4.14800773E-28
  -19.7999992       4.65738635E-28
  -19.6800003       3.46719366E-28
  -19.5599995       2.38489816E-29
  -19.4400005      -4.70376852E-28
  -19.3199997      -1.01658084E-27
  -19.2000008      -1.41282908E-27
  -19.0799999      -1.41493547E-27
  -18.9599991      -8.14929715E-28
  -18.8400002       4.54724627E-28
  -18.7199993       2.22054831E-27
  -18.6000004       4.01397735E-27
  -18.4799995       5.10938699E-27
  -18.3600006       4.68534228E-27
  -18.2399998       2.10627422E-27
  -18.1200008      -2.72741590E-27
  -18.0000000      -9.06508878E-27
  -17.8799992      -1.51682899E-26
  -17.7600002      -1.84905545E-26
  -17.6399994      -1.62614416E-26
  -17.5200005      -6.44953032E-27
  -17.3999996       1.10767596E-26
  -17.2800007       3.35344555E-26
  -17.1599998       5.48142588E-26
  -17.0400009       6.61262715E-26
  -16.9200001       5.79854489E-26
  -16.7999992       2.34571981E-26
  -16.6800003      -3.79273107E-26
  -16.5599995      -1.16720353E-25
  -16.4400005      -1.92096998E-25
  -16.3199997      -2.33926570E-25
  -16.2000008      -2.09367826E-25
  -16.0799999      -9.37846717E-26
  -15.9600000       1.15932737E-25
  -15.8400002       3.89402376E-25
  -15.7200003       6.57258741E-25
  -15.6000004       8.17378128E-25
  -15.4799995       7.56305257E-25
  -15.3599997       3.85462460E-25
  -15.2399998      -3.13927222E-25
  -15.1199999      -1.24942384E-24
  -15.0000000      -2.19632799E-24
  -14.8800001      -2.81460148E-24
  -14.7600002      -2.71601003E-24
  -14.6400003      -1.58143212E-24
  -14.5200005       6.89870152E-25
  -14.3999996       3.83743912E-24
  -14.2799997       7.15768761E-24
  -14.1599998       9.54138309E-24
  -14.0400000       9.67428406E-24
  -13.9200001       6.40739096E-24
  -13.8000002      -7.53868317E-25
  -13.6800003      -1.11582758E-23
  -13.5600004      -2.26879962E-23
  -13.4399996      -3.18025708E-23
  -13.3199997      -3.41054104E-23
  -13.1999998      -2.54815404E-23
  -13.0799999      -3.67826316E-24
  -12.9600000       3.00147627E-23
  -12.8400002       6.95257510E-23
  -12.7200003       1.03840803E-22
  -12.6000004       1.18487867E-22
  -12.4799995       9.89222109E-23
  -12.3599997       3.55336179E-23
  -12.2399998      -7.06947671E-23
  -12.1199999      -2.03521014E-22
  -12.0000000      -3.29839077E-22
  -11.8800001      -4.03107216E-22
  -11.7600002      -3.72974875E-22
  -11.6400003      -2.00695630E-22
  -11.5200005       1.22241469E-22
  -11.3999996       5.57099024E-22
  -11.2799997       1.00899859E-21
  -11.1599998       1.33287988E-21
  -11.0400000       1.35911914E-21
  -10.9200001       9.39202597E-22
  -10.8000002       5.32663377E-24
  -10.6800003      -1.36963156E-21
  -10.5600004      -2.93158625E-21
  -10.4399996      -4.24646860E-21
  -10.3199997      -4.76174719E-21
  -10.1999998      -3.93521766E-21
  -10.0799999      -1.41898674E-21
  -9.96000004       2.73698353E-21
  -9.84000015       7.91982381E-21
  -9.72000027       1.28985908E-20
  -9.60000038       1.59464137E-20
  -9.47999954       1.51796027E-20
  -9.35999966       9.10054578E-21
  -9.23999977      -2.74080379E-21
  -9.11999989      -1.91281494E-20
  -9.00000000      -3.68216865E-20
  -8.88000011      -5.06939254E-20
  -8.76000023      -5.45335750E-20
  -8.64000034      -4.25556152E-20
  -8.52000046      -1.14466740E-20
  -8.39999962       3.74705353E-20
  -8.27999973       9.65905264E-20
  -8.15999985       1.51646931E-19
  -8.03999996       1.83280657E-19
  -7.92000008       1.70913183E-19
  -7.80000019       9.87140606E-20
  -7.67999983      -3.72971732E-20
  -7.55999994      -2.22748417E-19
  -7.44000006      -4.21309814E-19
  -7.32000017      -5.76378158E-19
  -7.19999981      -6.19833213E-19
  -7.07999992      -4.88225159E-19
  -6.96000004      -1.44607107E-19
  -6.84000015       3.98290102E-19
  -6.71999979       1.06011436E-18
  -6.59999990       1.68798219E-18
  -6.48000002       2.07177187E-18
  -6.36000013       1.98370091E-18
  -6.23999977       1.24062213E-18
  -6.11999989      -2.20113640E-19
  -6.00000000      -2.26841999E-18
  -5.88000011      -4.53634781E-18
  -5.76000023      -6.42546662E-18
  -5.63999987      -7.18725902E-18
  -5.51999998      -6.08396800E-18
  -5.40000010      -2.61649718E-18
  -5.28000021       3.21974925E-18
  -5.15999985       1.07152091E-17
  -5.03999996       1.83435788E-17
  -4.92000008       2.38573166E-17
  -4.80000019       2.46387094E-17
  -4.67999983       1.83138516E-17
  -4.55999994       3.56344238E-18
  -4.44000006      -1.90209719E-17
  -4.32000017      -4.62643374E-17
  -4.19999981      -7.21926777E-17
  -4.07999992      -8.85340873E-17
  -3.96000004      -8.61011969E-17
  -3.83999991      -5.70401847E-17
  -3.72000003       2.31949922E-18
  -3.59999990       8.85612254E-17
  -3.48000002       1.89015482E-16
  -3.35999990       2.81253002E-16
  -3.24000001       3.35086287E-16
  -3.11999989       3.17595824E-16
  -3.00000000       2.01088838E-16
  -2.88000011      -2.69371003E-17
  -2.75999999      -3.53677760E-16
  -2.64000010      -7.33415601E-16
  -2.51999998      -1.08551581E-15
  -2.40000010      -1.30091036E-15
  -2.27999997      -1.25890791E-15
  -2.16000009      -8.54220869E-16
  -2.03999996      -3.14070883E-17
  -1.91999996       1.17912778E-15
  -1.79999995       2.63217924E-15
  -1.67999995       4.05612484E-15
  -1.55999994       5.06864431E-15
  -1.44000006       5.22691411E-15
  -1.32000005       4.11364177E-15
  -1.20000005       1.45198695E-15
  -1.08000004      -2.76736442E-15
 -0.959999979      -8.17316914E-15
 -0.839999974      -1.39475045E-14
 -0.720000029      -1.88407470E-14
 -0.600000024      -2.12955467E-14
 -0.479999989      -1.96924945E-14
 -0.360000014      -1.27064463E-14
 -0.239999995       2.67315948E-16
 -0.119999997       1.86890129E-14
  -1.11022302E-15   4.05501607E-14
  0.119999997       6.22598422E-14
  0.239999995       7.88444762E-14
  0.360000014       8.45309405E-14
  0.479999989       7.37227052E-14
  0.600000024       4.22954620E-14
  0.720000029      -1.09564067E-14
  0.839999974      -8.29822525E-14
  0.959999979      -1.65571509E-13
   1.08000004      -2.45226745E-13
   1.20000005      -3.04106783E-13
   1.32000005      -3.22205777E-13
   1.44000006      -2.80731710E-13
   1.55999994      -1.66386693E-13
   1.67999995       2.40288865E-14
   1.79999995       2.79518325E-13
   1.91999996       5.72286142E-13
   2.03999996       8.57631566E-13
   2.16000009       1.07715009E-12
   2.27999997       1.16565243E-12
   2.40000010       1.06160014E-12
   2.51999998       7.20116295E-13
   2.64000010       1.26843956E-13
   2.75999999      -6.89741829E-13
   2.88000011      -1.65037092E-12
   3.00000000      -2.62414569E-12
   3.11999989      -3.43707441E-12
   3.24000001      -3.89108407E-12
   3.35999990      -3.79298589E-12
   3.48000002      -2.99089096E-12
   3.59999990      -1.41350993E-12
   3.72000003       8.93968547E-13
   3.83999991       3.74480698E-12
   3.96000004       6.80384915E-12
   4.07999992       9.60490108E-12
   4.19999981       1.15957096E-11
   4.32000017       1.22098451E-11
   4.44000006       1.09599187E-11
   4.55999994       7.54145964E-12
   4.67999983       1.93232496E-12
   4.80000019      -5.53043852E-12
   4.92000008      -1.41148569E-11
   5.03999996      -2.27154268E-11
   5.15999985      -2.99418580E-11
   5.28000021      -3.42764185E-11
   5.40000010      -3.42900534E-11
   5.51999998      -2.88954954E-11
   5.63999987      -1.76045758E-11
   5.76000023      -7.48966102E-13
   5.88000011       2.03795193E-11
   6.00000000       4.35094634E-11
   6.11999989       6.55212481E-11
   6.23999977       8.27414526E-11
   6.36000013       9.13896389E-11
   6.48000002       8.81405504E-11
   6.59999990       7.07391576E-11
   6.71999979       3.85851177E-11
   6.84000015      -6.80907327E-12
   6.96000004      -6.15821005E-11
   7.07999992      -1.19591365E-10
   7.19999981      -1.72836162E-10
   7.32000017      -2.12245915E-10
   7.44000006      -2.28791402E-10
   7.55999994      -2.14821563E-10
   7.67999983      -1.65477798E-10
   7.80000019      -7.99983621E-11
   7.92000008       3.72929708E-11
   8.03999996       1.76514761E-10
   8.15999985       3.22437688E-10
   8.27999973       4.55478627E-10
   8.39999962       5.53494583E-10
   8.52000046       5.94287231E-10
   8.64000034       5.58621427E-10
   8.76000023       4.33457298E-10
   8.88000011       2.15019572E-10
   9.00000000      -8.87199481E-11
   9.11999989      -4.56568283E-10
   9.23999977      -8.54016413E-10
   9.35999966      -1.23479205E-09
   9.47999954      -1.54417745E-09
   9.60000038      -1.72402548E-09
   9.72000027      -1.71919967E-09
   9.84000015      -1.48496104E-09
   9.96000004      -9.94638816E-10
   10.0799999      -2.46778875E-10
   10.1999998       7.29114435E-10
   10.3199997       1.86912996E-09
   10.4399996       3.07459835E-09
   10.5600004       4.21546709E-09
   10.6800003       5.13776532E-09
   10.8000002       5.67519720E-09
   10.9200001       5.66449021E-09
   11.0400000       4.96372810E-09
   11.1599998       3.47245077E-09
   11.2799997       1.15193433E-09
   11.3999996      -1.95626870E-09
   11.5200005      -5.71564307E-09
   11.6400003      -9.88606352E-09
   11.7600002      -1.41232581E-08
   11.8800001      -1.79881372E-08
   12.0000000      -2.09672244E-08
   12.1199999      -2.25047394E-08
   12.2399998      -2.20458851E-08
   12.3599997      -1.90899687E-08
   12.4799995      -1.32507241E-08
   12.6000004      -4.32019487E-09
   12.7200003       7.66867991E-09
   12.8400002       2.23863559E-08
   12.9600000       3.91641315E-08
   13.0799999       5.69712064E-08
   13.1999998       7.44175495E-08
   13.3199997       8.97880525E-08
   13.4399996       1.01112015E-07
   13.5600004       1.06270406E-07
   13.6800003       1.03140735E-07
   13.8000002       8.97769539E-08
   13.9200001       6.46186322E-08
   14.0400000       2.67207536E-08
   14.1599998      -2.40073579E-08
   14.2799997      -8.65682850E-08
   14.3999996      -1.58664136E-07
   14.5200005      -2.36523107E-07
   14.6400003      -3.14783051E-07
   14.7600002      -3.86449557E-07
   14.8800001      -4.42944156E-07
   15.0000000      -4.74255160E-07
   15.1199999      -4.69200131E-07
   15.2399998      -4.15803015E-07
   15.3599997      -3.01782933E-07
   15.4799995      -1.15144758E-07
   15.6000004       1.55145628E-07
   15.7200003       5.18426532E-07
   15.8400002       9.81577728E-07
   15.9600000       1.54826785E-06
   16.0799999       2.21825485E-06
   16.2000008       2.98678401E-06
   16.3199997       3.84413124E-06
   16.4400005       4.77533331E-06
   16.5599995       5.76014554E-06
   16.6800003       6.77325215E-06
   16.7999992       7.78475260E-06
   16.9200001       8.76092872E-06
   17.0400009       9.66528296E-06
   17.1599998       1.04598112E-05
   17.2800007       1.11064774E-05
   17.3999996       1.15688335E-05
   17.5200005       1.18136959E-05
   17.6399994       1.18128119E-05
   17.7600002       1.15444282E-05
   17.8799992       1.09946623E-05
   18.0000000       1.01586020E-05
   18.1200008       9.04106946E-06
   18.2399998       7.65696768E-06
   18.3600006       6.03119770E-06
   18.4799995       4.19811568E-06
   18.6000004       2.20054517E-06
   18.7199993       8.83801832E-08
   18.8400002      -2.08316828E-06
   18.9599991      -4.25559983E-06
   19.0799999      -6.36933328E-06
   19.2000008      -8.36599156E-06
   19.3199997      -1.01906544E-05
   19.4400005      -1.17939662E-05
   19.5599995      -1.31340030E-05
   19.6800003      -1.41778137E-05
   19.7999992      -1.49025564E-05
   19.9200001      -1.52961893E-05
   20.0400009      -1.53577075E-05
   20.1599998      -1.50968890E-05
   20.2800007      -1.45336207E-05
   20.3999996      -1.36968138E-05
   20.5200005      -1.26229961E-05
   20.6399994      -1.13546575E-05
   20.7600002      -9.93841422E-06
   20.8799992      -8.42312238E-06
   21.0000000      -6.85798568E-06
   21.1200008      -5.29078079E-06
   21.2399998      -3.76624303E-06
   21.3600006      -2.32469029E-06
   21.4799995      -1.00091870E-06
   21.6000004       1.76598135E-07
   21.7199993       1.18619926E-06
   21.8400002       2.01322518E-06
   21.9599991       2.64992400E-06
   22.0799999       3.09511393E-06
   22.2000008       3.35364098E-06
   22.3199997       3.43568308E-06
   22.4400005       3.35595041E-06
   22.5599995       3.13283226E-06
   22.6800003       2.78753168E-06
   22.7999992       2.34322783E-06
   22.9200001       1.82429494E-06
   23.0400009       1.25559200E-06
   23.1599998       6.61836680E-07
   23.2800007       6.70576057E-08
   23.3999996      -5.05880564E-07
   23.5200005      -1.03569698E-06
   23.6399994      -1.50307426E-06
   23.7600002      -1.89101638E-06
   23.8799992      -2.18519699E-06
   24.0000000      -2.37430618E-06
   24.1200008      -2.45039291E-06
   24.2399998      -2.40919167E-06
   24.3600006      -2.25041435E-06
   24.4799995      -1.97798090E-06
   24.6000004      -1.60014770E-06
   24.7199993      -1.12950295E-06
   24.8400002      -5.82792893E-07
   24.9599991       1.94528909E-08
   25.0799999       6.53512814E-07
   25.2000008       1.29328612E-06
   25.3199997       1.91131130E-06
   25.4400005       2.47995990E-06
   25.5599995       2.97274687E-06
   25.6800003       3.36569383E-06
   25.7999992       3.63865638E-06
   25.9200001       3.77653259E-06
   26.0400009       3.77025322E-06
   26.1599998       3.61748494E-06
   26.2800007       3.32297168E-06
   26.3999996       2.89847321E-06
   26.5200005       2.36228857E-06
   26.6399994       1.73837554E-06
   26.7600002       1.05511458E-06
   26.8799992       3.43785644E-07
   27.0000000      -3.63138440E-07
   27.1200008      -1.03377431E-06
   27.2399998      -1.63856464E-06
   27.3600006      -2.15185082E-06
   27.4799995      -2.55317900E-06
   27.6000004      -2.82825590E-06
   27.7199993      -2.96949634E-06
   27.8400002      -2.97614793E-06
   27.9599991      -2.85399301E-06
   28.0799999      -2.61467812E-06
   28.2000008      -2.27473629E-06
   28.3199997      -1.85438910E-06
   28.4400005      -1.37622987E-06
   28.5599995      -8.63886044E-07
   28.6800003      -3.40755264E-07
   28.7999992       1.71108184E-07
   28.9200001       6.51897551E-07
   29.0400009       1.08471681E-06
   29.1599998       1.45599324E-06
   29.2800007       1.75565503E-06
   29.3999996       1.97710619E-06
   29.5200005       2.11704764E-06
   29.6399994       2.17519209E-06
   29.7600002       2.15392970E-06
   29.8799992       2.05798392E-06
   30.0000000       1.89409252E-06
   30.1200008       1.67072926E-06
   30.2399998       1.39786903E-06
   30.3600006       1.08678614E-06
   30.4799995       7.49859566E-07
   30.6000004       4.00360619E-07
   30.7199993       5.21910657E-08
   30.8400002      -2.80450820E-07
   30.9599991      -5.83491953E-07
   31.0799999      -8.43494661E-07
   31.2000008      -1.04824335E-06
   31.3199997      -1.18737842E-06
   31.4400005      -1.25303700E-06
   31.5599995      -1.24044936E-06
   31.6800003      -1.14843419E-06
   31.7999992      -9.79740776E-07
   31.9200001      -7.41186682E-07
   32.0400009      -4.43557667E-07
   32.1599998      -1.01249050E-07
   32.2799988       2.68350192E-07
   32.4000015       6.45709520E-07
   32.5200005       1.01020271E-06
   32.6399994       1.34128788E-06
   32.7599983       1.61974788E-06
   32.8800011       1.82890869E-06
   33.0000000       1.95575149E-06
   33.1199989       1.99183842E-06
   33.2400017       1.93398341E-06
   33.3600006       1.78461096E-06
   33.4799995       1.55177509E-06
   33.5999985       1.24882308E-06
   33.7200012       8.93718322E-07
   33.8400002       5.08060850E-07
   33.9599991       1.15861184E-07
   34.0800018      -2.57857238E-07
   34.2000008      -5.88541866E-07
   34.3199997      -8.53589540E-07
   34.4399986      -1.03372952E-06
   34.5600014      -1.11422560E-06
   34.6800003      -1.08582742E-06
   34.7999992      -9.45414172E-07
   34.9199982      -6.96293057E-07
   35.0400009      -3.48139622E-07
   35.1599998       8.34162535E-08
   35.2799988       5.77532148E-07
   35.4000015       1.10917767E-06
   35.5200005       1.65038500E-06
   35.6399994       2.17165280E-06
   35.7599983       2.64343248E-06
   35.8800011       3.03761476E-06
   36.0000000       3.32894615E-06
   36.1199989       3.49630568E-06
   36.2400017       3.52378265E-06
   36.3600006       3.40151064E-06
   36.4799995       3.12622888E-06
   36.5999985       2.70154260E-06
   36.7200012       2.13788849E-06
   36.8400002       1.45220702E-06
   36.9599991       6.67343670E-07
   37.0800018      -1.88793351E-07
   37.2000008      -1.08427867E-06
   37.3199997      -1.98438011E-06
   37.4399986      -2.85288502E-06
   37.5600014      -3.65349774E-06
   37.6800003      -4.35125639E-06
   37.7999992      -4.91392348E-06
   37.9199982      -5.31330716E-06
   38.0400009      -5.52645997E-06
   38.1599998      -5.53671816E-06
   38.2799988      -5.33454568E-06
   38.4000015      -4.91814490E-06
   38.5200005      -4.29380134E-06
   38.6399994      -3.47594982E-06
   38.7599983      -2.48693505E-06
   38.8800011      -1.35647053E-06
   39.0000000      -1.20792421E-07
   39.1199989       1.17847208E-06
   39.2400017       2.49569598E-06
   39.3600006       3.78285858E-06
   39.4799995       4.99132238E-06
   39.5999985       6.07370430E-06
   39.7200012       6.98578060E-06
   39.8400002       7.68833161E-06
   39.9599991       8.14886243E-06
   40.0800018       8.34309139E-06
   40.2000008       8.25616098E-06
   40.3199997       7.88347461E-06
   40.4399986       7.23113180E-06
   40.5600014       6.31591320E-06
   40.6800003       5.16480577E-06
   40.7999992       3.81408768E-06
   40.9199982       2.30799060E-06
   41.0400009       6.97011785E-07
   41.1599998      -9.64061428E-07
   41.2799988      -2.61831951E-06
   41.4000015      -4.20898959E-06
   41.5200005      -5.68168662E-06
   41.6399994      -6.98654776E-06
   41.7599983      -8.08015648E-06
   41.8800011      -8.92717708E-06
   42.0000000      -9.50162666E-06
   42.1199989      -9.78773824E-06
   42.2400017      -9.78038770E-06
   42.3600006      -9.48508568E-06
   42.4799995      -8.91753461E-06
   42.5999985      -8.10279380E-06
   42.7200012      -7.07409481E-06
   42.8400002      -5.87136310E-06
   42.9599991      -4.53952316E-06
   43.0800018      -3.12664770E-06
   43.2000008      -1.68203564E-06
   43.3199997      -2.54296310E-07
   43.4399986       1.11048803E-06
   43.5600014       2.37044674E-06
   43.6800003       3.48938647E-06
   43.7999992       4.43798035E-06
   43.9199982       5.19463538E-06
   44.0400009       5.74600062E-06
   44.1599998       6.08710388E-06
   44.2799988       6.22111156E-06
   44.4000015       6.15873432E-06
   44.5200005       5.91730986E-06
   44.6399994       5.51962421E-06
   44.7599983       4.99253292E-06
   44.8800011       4.36546861E-06
   45.0000000       3.66891891E-06
   45.1199989       2.93296148E-06
   45.2400017       2.18593732E-06
   45.3600006       1.45333524E-06
   45.4799995       7.56935151E-07
   45.5999985       1.14248046E-07
   45.7200012      -4.61743525E-07
   45.8400002      -9.62554509E-07
   45.9599991      -1.38391124E-06
   46.0800018      -1.72526109E-06
   46.2000008      -1.98913654E-06
   46.3199997      -2.18044329E-06
   46.4399986      -2.30572959E-06
   46.5600014      -2.37250333E-06
   46.6800003      -2.38862981E-06
   46.7999992      -2.36184928E-06
   46.9199982      -2.29942566E-06
   47.0400009      -2.20792299E-06
   47.1599998      -2.09310315E-06
   47.2799988      -1.95991606E-06
   47.4000015      -1.81255984E-06
   47.5200005      -1.65458209E-06
   47.6399994      -1.48899539E-06
   47.7599983      -1.31838760E-06
   47.8800011      -1.14501336E-06
   48.0000000      -9.70857627E-07
   48.1199989      -7.97673692E-07
   48.2400017      -6.26994336E-07
   48.3600006      -4.60126898E-07
   48.4799995      -2.98137820E-07
   48.5999985      -1.41835784E-07
   48.7200012       8.23805912E-09
   48.8400002       1.51806930E-07
   48.9599991       2.88835935E-07
   49.0800018       4.19486668E-07
   49.2000008       5.44047339E-07
   49.3199997       6.62838374E-07
   49.4399986       7.76096329E-07
   49.5600014       8.83842517E-07
   49.6800003       9.85744691E-07
   49.7999992       1.08098448E-06
   49.9199982       1.16814431E-06
   50.0400009       1.24513122E-06
   50.1599998       1.30915237E-06
   50.2799988       1.35675919E-06
   50.4000015       1.38396877E-06
   50.5200005       1.38646965E-06
   50.6399994       1.35990626E-06
   50.7599983       1.30023159E-06
   50.8800011       1.20410505E-06
   51.0000000       1.06930634E-06
   51.1199989       8.95129801E-07
   51.2400017       6.82720611E-07
   51.3600006       4.35317475E-07
   51.4799995       1.58369829E-07
   51.5999985      -1.40493384E-07
   51.7200012      -4.51653278E-07
   51.8400002      -7.63848504E-07
   51.9599991      -1.06466700E-06
   52.0800018      -1.34115396E-06
   52.2000008      -1.58050045E-06
   52.3199997      -1.77077084E-06
   52.4399986      -1.90161722E-06
   52.5600014      -1.96493875E-06
   52.6800003      -1.95543566E-06
   52.7999992      -1.87102250E-06
   52.9199982      -1.71307011E-06
   53.0400009      -1.48645506E-06
   53.1599998      -1.19940933E-06
   53.2799988      -8.63174023E-07
   53.4000015      -4.91472861E-07
   53.5200005      -9.98291370E-08
   53.6399994       2.95233747E-07
   53.7599983       6.77066112E-07
   53.8800011       1.02978800E-06
   54.0000000       1.33915432E-06
   54.1199989       1.59333376E-06
   54.2400017       1.78355140E-06
   54.3600006       1.90454841E-06
   54.4799995       1.95482698E-06
   54.5999985       1.93665778E-06
   54.7200012       1.85584258E-06
   54.8400002       1.72124567E-06
   54.9599991       1.54411771E-06
   55.0800018       1.33725916E-06
   55.2000008       1.11407826E-06
   55.3199997       8.87613169E-07
   55.4399986       6.69592737E-07
   55.5600014       4.69608210E-07
   55.6800003       2.94465707E-07
   55.7999992       1.47774770E-07
   55.9199982       2.98113996E-08
   56.0400009      -6.23280982E-08
   56.1599998      -1.34291895E-07
   56.2799988      -1.93790484E-07
   56.4000015      -2.49724508E-07
   56.5200005      -3.11200267E-07
   56.6399994      -3.86521748E-07
   56.7599983      -4.82252972E-07
   56.8800011      -6.02438831E-07
   57.0000000      -7.48059108E-07
   57.1199989      -9.16767817E-07
   57.2400017      -1.10294241E-06
   57.3600006      -1.29803811E-06
   57.4799995      -1.49121138E-06
   57.5999985      -1.67015230E-06
   57.7200012      -1.82204803E-06
   57.8400002      -1.93458777E-06
   57.9599991      -1.99692045E-06
   58.0800018      -2.00048657E-06
   58.2000008      -1.93965980E-06
   58.3199997      -1.81215546E-06
   58.4399986      -1.61918342E-06
   58.5600014      -1.36535323E-06
   58.6800003      -1.05834681E-06
   58.7999992      -7.08401103E-07
   58.9199982      -3.27647172E-07
   59.0400009       7.06404393E-08
   59.1599998       4.72825860E-07
   59.2799988       8.65672291E-07
   59.4000015       1.23702841E-06
   59.5200005       1.57639602E-06
   59.6399994       1.87533954E-06
   59.7599983       2.12771238E-06
   59.8800011       2.32967818E-06
   60.0000000       2.47953085E-06
   60.1199989       2.57732427E-06
   60.2400017       2.62434423E-06
   60.3600006       2.62247841E-06
   60.4799995       2.57355327E-06
   60.5999985       2.47871731E-06
   60.7200012       2.33796095E-06
   60.8400002       2.14985425E-06
   60.9599991       1.91156983E-06
   61.0800018       1.61922947E-06
   61.2000008       1.26857685E-06
   61.3199997       8.55937742E-07
   61.4399986       3.79383579E-07
   61.5600014      -1.60023603E-07
   61.6800003      -7.57053840E-07
   61.7999992      -1.40136126E-06
   61.9199982      -2.07691960E-06
   62.0400009      -2.76196920E-06
   62.1599998      -3.42955718E-06
   62.2799988      -4.04869388E-06
   62.4000015      -4.58608065E-06
   62.5200005      -5.00829674E-06
   62.6399994      -5.28426790E-06
   62.7599983      -5.38780569E-06
   62.8800011      -5.29997442E-06
   63.0000000      -5.01104705E-06
   63.1199989      -4.52184713E-06
   63.2400017      -3.84431769E-06
   63.3600006      -3.00123929E-06
   63.4799995      -2.02509841E-06
   63.5999985      -9.56184977E-07
   63.7200012       1.59916297E-07
   63.8400002       1.27522412E-06
   63.9599991       2.34239383E-06
   64.0800018       3.31762249E-06
   64.1999969       4.16318517E-06
   64.3199997       4.84939983E-06
   64.4400024       5.35588106E-06
   64.5599976       5.67203006E-06
   64.6800003       5.79676089E-06
   64.8000031       5.73756370E-06
   64.9199982       5.50904497E-06
   65.0400009       5.13112673E-06
   65.1600037       4.62712023E-06
   65.2799988       4.02186606E-06
   65.4000015       3.34011042E-06
   65.5199966       2.60525644E-06
   65.6399994       1.83855752E-06
   65.7600021       1.05876859E-06
   65.8799973       2.82218338E-07
   66.0000000      -4.76791627E-07
   66.1200027      -1.20537788E-06
   66.2399979      -1.89140098E-06
   66.3600006      -2.52286100E-06
   66.4800034      -3.08748781E-06
   66.5999985      -3.57261160E-06
   66.7200012      -3.96536370E-06
   66.8399963      -4.25320331E-06
   66.9599991      -4.42472628E-06
   67.0800018      -4.47067032E-06
   67.1999969      -4.38499183E-06
   67.3199997      -4.16589546E-06
   67.4400024      -3.81666723E-06
   67.5599976      -3.34621063E-06
   67.6800003      -2.76918740E-06
   67.8000031      -2.10571670E-06
   67.9199982      -1.38062899E-06
   68.0400009      -6.22310949E-07
   68.1600037       1.38776201E-07
   68.2799988       8.71794157E-07
   68.4000015       1.54730765E-06
   68.5199966       2.13900739E-06
   68.6399994       2.62523804E-06
   68.7600021       2.99021781E-06
   68.8799973       3.22485175E-06
   69.0000000       3.32708896E-06
   69.1200027       3.30179660E-06
   69.2399979       3.16017235E-06
   69.3600006       2.91874608E-06
   69.4800034       2.59805165E-06
   69.5999985       2.22107110E-06
   69.7200012       1.81157361E-06
   69.8399963       1.39246981E-06
   69.9599991       9.84304506E-07
   70.0800018       6.03998672E-07
   70.1999969       2.63928825E-07
   70.3199997      -2.85898540E-08
   70.4400024      -2.71386256E-07
   70.5599976      -4.67082913E-07
   70.6800003      -6.22350342E-07
   70.8000031      -7.46835099E-07
   70.9199982      -8.51858999E-07
   71.0400009      -9.49005425E-07
   71.1600037      -1.04871867E-06
   71.2799988      -1.15904140E-06
   71.4000015      -1.28460238E-06
   71.5199966      -1.42594627E-06
   71.6399994      -1.57926559E-06
   71.7600021      -1.73656201E-06
   71.8799973      -1.88622437E-06
   72.0000000      -2.01397643E-06
   72.1200027      -2.10411599E-06
   72.2399979      -2.14094189E-06
   72.3600006      -2.11025076E-06
   72.4800034      -2.00077852E-06
   72.5999985      -1.80546954E-06
   72.7200012      -1.52246650E-06