  -30.0000000       0.00000000    
  -29.8799992       0.00000000    
  -29.7600002       0.00000000    
  -29.6399994       0.00000000    
  -29.5200005       0.00000000    
  -29.3999996       0.00000000    
  -29.2800007       1.68155816E-44
  -29.1599998       1.34524653E-43
  -29.0400009       1.12244007E-42
  -28.9200001       6.35769113E-42
  -28.7999992       1.76297360E-41
  -28.6800003       4.09739671E-42
  -28.5599995      -1.67209939E-40
  -28.4400005      -7.18995032E-40
  -28.3199997      -1.56772648E-39
  -28.2000008      -1.49252440E-39
  -28.0799999       1.90793092E-39
  -27.9599991       8.82320852E-39
  -27.8400002       9.91384192E-39
  -27.7199993      -1.58190734E-38
  -27.6000004      -7.69408930E-38
  -27.4799995      -1.05452507E-37
  -27.3600006       1.08125299E-37
  -27.2399998       8.51239177E-37
  -27.1200008       2.13076216E-36
  -27.0000000       3.02040992E-36
  -26.8799992       1.16533765E-36
  -26.7600002      -6.58261770E-36
  -26.6399994      -2.14220644E-35
  -26.5200005      -3.79769508E-35
  -26.3999996      -4.04972985E-35
  -26.2800007      -5.07560653E-36
  -26.1599998       8.70741988E-35
  -26.0400009       2.25543295E-34
  -25.9200001       3.46509860E-34
  -25.7999992       3.29558152E-34
  -25.6800003       3.82563919E-35
  -25.5599995      -5.88862288E-34
  -25.4400005      -1.42445294E-33
  -25.3199997      -2.08186092E-33
  -25.2000008      -1.97122064E-33
  -25.0799999      -5.34275958E-34
  -24.9599991       2.37680531E-33
  -24.8400002       6.12679594E-33
  -24.7199993       9.16431118E-33
  -24.6000004       9.34283865E-33
  -24.4799995       4.75316430E-33
  -24.3600006      -5.13732982E-33
  -24.2399998      -1.84988046E-32
  -24.1200008      -3.08705417E-32
  -24.0000000      -3.60210260E-32
  -23.8799992      -2.79481716E-32
  -23.7600002      -3.53095765E-33
  -23.6399994       3.50368434E-32
  -23.5200005       7.89828114E-32
  -23.3999996       1.13571821E-31
  -23.2800007       1.20882737E-31
  -23.1599998       8.46036492E-32
  -23.0400009      -3.64254879E-33
  -22.9200001      -1.37356233E-31
  -22.7999992      -2.89293344E-31
  -22.6800003      -4.09546746E-31
  -22.5599995      -4.31506767E-31
  -22.4400005      -2.89329385E-31
  -22.3199997       5.25336948E-32
  -22.2000008       5.63593447E-31
  -22.0799999       1.11945440E-30
  -21.9599991       1.50197136E-30
  -21.8400002       1.44601604E-30
  -21.7199993       7.37969758E-31
  -21.6000004      -6.53814190E-31
  -21.4799995      -2.46499247E-30
  -21.3600006      -4.10439031E-30
  -21.2399998      -4.76536457E-30
  -21.1200008      -3.69566998E-30
  -21.0000000      -5.70204803E-31
  -20.8799992       4.16586321E-30
  -20.7600002       9.16054660E-30
  -20.6399994       1.23778840E-29
  -20.5200005       1.17244168E-29
  -20.3999996       5.95127700E-30
  -20.2800007      -4.47266648E-30
  -20.1599998      -1.69193397E-29
  -20.0400009      -2.69417497E-29
  -19.9200001      -2.95179549E-29
  -19.7999992      -2.09657757E-29
  -19.6800003      -9.34200719E-31
  -19.5599995       2.63351811E-29
  -19.4400005       5.22179131E-29
  -19.3199997       6.57444353E-29
  -19.2000008       5.72003541E-29
  -19.0799999       2.23536986E-29
  -18.9599991      -3.41031938E-29
  -18.8400002      -9.73897152E-29
  -18.7199993      -1.44831364E-28
  -18.6000004      -1.51639105E-28
  -18.4799995      -9.93825111E-29
  -18.3600006       1.48595606E-29
  -18.2399998       1.71532625E-28
  -18.1200008       3.26973191E-28
  -18.0000000       4.19722439E-28
  -17.8799992       3.85852168E-28
  -17.7600002       1.81775142E-28
  -17.6399994      -1.90320132E-28
  -17.5200005      -6.62552834E-28
  -17.3999996      -1.09702231E-27
  -17.2800007      -1.30617907E-27
  -17.1599998      -1.10192515E-27
  -17.0400009      -3.68182435E-28
  -16.9200001       8.60179728E-28
  -16.7999992       2.33992053E-27
  -16.6800003       3.61609371E-27
  -16.5599995       4.09931223E-27
  -16.4400005       3.23078716E-27
  -16.3199997       7.11466881E-28
  -16.2000008      -3.26367010E-27
  -16.0799999      -7.85325129E-27
  -15.9600000      -1.15934550E-26
  -15.8400002      -1.26677480E-26
  -15.7200003      -9.43068652E-27
  -15.6000004      -1.10365377E-27
  -15.4799995       1.15386916E-26
  -15.3599997       2.57485062E-26
  -15.2399998       3.69247023E-26
  -15.1199999       3.94706616E-26
  -15.0000000       2.84079135E-26
  -14.8800001       1.49766235E-27
  -14.7600002      -3.86739367E-26
  -14.6400003      -8.34242594E-26
  -14.5200005      -1.18351495E-25
  -14.3999996      -1.25976982E-25
  -14.2799997      -9.07254382E-26
  -14.1599998      -5.49692222E-27
  -14.0400000       1.21837003E-25
  -13.9200001       2.64414811E-25
  -13.8000002       3.77436885E-25
  -13.6800003       4.06210833E-25
  -13.5600004       3.01438962E-25
  -13.4399996       3.94783838E-26
  -13.3199997      -3.57514647E-25
  -13.1999998      -8.08868390E-25
  -13.0799999      -1.17798518E-24
  -12.9600000      -1.29608811E-24
  -12.8400002      -1.00797205E-24
  -12.7200003      -2.33130634E-25
  -12.6000004       9.72698727E-25
  -12.4799995       2.37714438E-24
  -12.3599997       3.57535507E-24
  -12.2399998       4.05648725E-24
  -12.1199999       3.33610736E-24
  -12.0000000       1.13662807E-24
  -11.8800001      -2.42641131E-24
  -11.7600002      -6.71437697E-24
  -11.6400003      -1.05609337E-23
  -11.5200005      -1.24478236E-23
  -11.3999996      -1.08771455E-23
  -11.2799997      -4.89539389E-24
  -11.1599998       5.34661917E-24
  -11.0400000       1.81750728E-23
  -10.9200001       3.03190169E-23
  -10.8000002       3.73515068E-23
  -10.6800003       3.47117605E-23
  -10.5600004       1.92027440E-23
  -10.4399996      -9.34849555E-24
  -10.3199997      -4.67664702E-23
  -10.1999998      -8.41304504E-23
  -10.0799999      -1.08825634E-22
  -9.96000004      -1.07284111E-22
  -9.84000015      -6.91808863E-23
  -9.72000027       7.74170580E-24
  -9.60000038       1.13601537E-22
  -9.47999954       2.24745462E-22
  -9.35999966       3.06109106E-22
  -9.23999977       3.18393879E-22
  -9.11999989       2.29590002E-22
  -9.00000000       2.87101193E-23
  -8.88000011      -2.62014432E-22
  -8.76000023      -5.81221052E-22
  -8.64000034      -8.33327316E-22
  -8.52000046      -9.06988194E-22
  -8.39999962      -7.06342218E-22
  -8.27999973      -1.89662685E-22
  -8.15999985       5.94660566E-22
  -8.03999996       1.48808379E-21
  -7.92000008       2.23110846E-21
  -7.80000019       2.51055920E-21
  -7.67999983       2.04450916E-21
  -7.55999994       6.91493710E-22
  -7.44000006      -1.44309918E-21
  -7.32000017      -3.94087867E-21
  -7.19999981      -6.08389119E-21
  -7.07999992      -6.97648733E-21
  -6.96000004      -5.77978559E-21
  -6.84000015      -2.02648506E-21
  -6.71999979       4.05717025E-21
  -6.59999990       1.13291190E-20
  -6.48000002       1.77277617E-20
  -6.36000013       2.05829387E-20
  -6.23999977       1.72729868E-20
  -6.11999989       6.15639349E-21
  -6.00000000      -1.24168308E-20
  -5.88000011      -3.53205798E-20
  -5.76000023      -5.64598266E-20
  -5.63999987      -6.74975890E-20
  -5.51999998      -5.96695201E-20
  -5.40000010      -2.65693256E-20
  -5.28000021       3.25810901E-20
  -5.15999985       1.10035507E-19
  -5.03999996       1.88116614E-19
  -4.92000008       2.40426120E-19
  -4.80000019       2.36457126E-19
  -4.67999983       1.49657665E-19
  -4.55999994      -3.20744388E-20
  -4.44000006      -2.95696131E-19
  -4.32000017      -5.95391577E-19
  -4.19999981      -8.51759250E-19
  -4.07999992      -9.61103118E-19
  -3.96000004      -8.16462523E-19
  -3.83999991      -3.39177604E-19
  -3.72000003       4.83896988E-19
  -3.59999990       1.56620435E-18
  -3.48000002       2.70180266E-18
  -3.35999990       3.57230769E-18
  -3.24000001       3.78995007E-18
  -3.11999989       2.97980918E-18
  -3.00000000       8.94363498E-19
  -2.88000011      -2.45849907E-18
  -2.75999999      -6.70440805E-18
  -2.64000010      -1.10464412E-17
  -2.51999998      -1.43024392E-17
  -2.40000010      -1.50639962E-17
  -2.27999997      -1.19839537E-17
  -2.16000009      -4.16757829E-18
  -2.03999996       8.39449769E-18
  -1.91999996       2.44486184E-17
  -1.79999995       4.12759254E-17
  -1.67999995       5.47870406E-17
  -1.55999994       6.00058852E-17
  -1.44000006       5.19718208E-17
  -1.32000005       2.69963562E-17
  -1.20000005      -1.59004661E-17
  -1.08000004      -7.36565425E-17
 -0.959999979      -1.38296869E-16
 -0.839999974      -1.96904111E-16
 -0.720000029      -2.32745278E-16
 -0.600000024      -2.27712394E-16
 -0.479999989      -1.65990850E-16
 -0.360000014      -3.85675707E-17
 -0.239999995       1.52121863E-16
 -0.119999997       3.88364792E-16
  -1.11022302E-15   6.35259887E-16
  0.119999997       8.41778961E-16
  0.239999995       9.45596983E-16
  0.360000014       8.82000214E-16
  0.479999989       5.96496748E-16
  0.600000024       5.99334838E-17
  0.720000029      -7.15916270E-16
  0.839999974      -1.66508297E-15
  0.959999979      -2.65973364E-15
   1.08000004      -3.51151887E-15
   1.20000005      -3.98493342E-15
   1.32000005      -3.82468961E-15
   1.44000006      -2.79741038E-15
   1.55999994      -7.45631298E-16
   1.67999995       2.35077266E-15
   1.79999995       6.31382933E-15
   1.91999996       1.07186709E-14
   2.03999996       1.48706375E-14
   2.16000009       1.78236552E-14
   2.27999997       1.84545711E-14
   2.40000010       1.56044221E-14
   2.51999998       8.28990891E-15
   2.64000010      -4.02370847E-15
   2.75999999      -2.11135634E-14
   2.88000011      -4.16986155E-14
   3.00000000      -6.32120699E-14
   3.11999989      -8.17274376E-14
   3.24000001      -9.21256412E-14
   3.35999990      -8.85820687E-14
   3.48000002      -6.54230562E-14
   3.59999990      -1.83467370E-14
   3.72000003       5.40755490E-14
   3.83999991       1.48798508E-13
   3.96000004       2.56888288E-13
   4.07999992       3.62669638E-13
   4.19999981       4.43862530E-13
   4.32000017       4.73120187E-13
   4.44000006       4.21273991E-13
   4.55999994       2.62370285E-13
   4.67999983      -1.97425338E-14
   4.80000019      -4.23939719E-13
   4.92000008      -9.24578556E-13
   5.03999996      -1.46603140E-12
   5.15999985      -1.96081476E-12
   5.28000021      -2.29316826E-12
   5.40000010      -2.32960764E-12
   5.51999998      -1.93721818E-12
   5.63999987      -1.00925724E-12
   5.76000023       5.03947036E-13
   5.88000011       2.56259792E-12
   6.00000000       5.00905740E-12
   6.11999989       7.55034577E-12
   6.23999977       9.75888034E-12
   6.36000013       1.10981380E-11
   6.48000002       1.09778228E-11
   6.59999990       8.83936414E-12
   6.71999979       4.26744967E-12
   6.84000015      -2.88286907E-12
   6.96000004      -1.23603237E-11
   7.07999992      -2.34152090E-11
   7.19999981      -3.47466431E-11
   7.32000017      -4.45253175E-11
   7.44000006      -5.05135725E-11
   7.55999994      -5.02953339E-11
   7.67999983      -4.16143266E-11
   7.80000019      -2.28004993E-11
   7.92000008       6.75597816E-12
   8.03999996       4.61442377E-11
   8.15999985       9.25635263E-11
   8.27999973       1.41132356E-10
   8.39999962       1.84961546E-10
   8.52000046       2.15561125E-10
   8.64000034       2.23621122E-10
   8.76000023       2.00160929E-10
   8.88000011       1.37985456E-10
   9.00000000       3.33230527E-11
   9.11999989      -1.12541039E-10
   9.23999977      -2.91874414E-10
   9.35999966      -4.89619179E-10
   9.47999954      -6.83295864E-10
   9.60000038      -8.43924097E-10
   9.72000027      -9.38115252E-10
   9.84000015      -9.31375310E-10
   9.96000004      -7.92500510E-10
   10.0799999      -4.98774522E-10
   10.1999998      -4.14930416E-11
   10.3199997       5.68820657E-10
   10.4399996       1.29826716E-09
   10.5600004       2.08730033E-09
   10.6800003       2.85111224E-09
   10.8000002       3.48331164E-09
   10.9200001       3.86328569E-09
   11.0400000       3.86728205E-09
   11.1599998       3.38281136E-09
   11.2799997       2.32548536E-09
   11.3999996       6.56902421E-10
   11.5200005      -1.59824498E-09
   11.6400003      -4.33800906E-09
   11.7600002      -7.37430828E-09
   11.8800001      -1.04316200E-08
   12.0000000      -1.31552174E-08
   12.1199999      -1.51303325E-08
   12.2399998      -1.59127769E-08
   12.3599997      -1.50704054E-08
   12.4799995      -1.22336363E-08
   12.6000004      -7.15174275E-09
   12.7200003       2.49506721E-10
   12.8400002       9.81451009E-09
   12.9600000       2.11151860E-08
   13.0799999       3.34257528E-08
   13.1999998       4.57213467E-08
   13.3199997       5.67060638E-08
   13.4399996       6.48742144E-08
   13.5600004       6.86063970E-08
   13.6800003       6.62990161E-08
   13.8000002       5.65224170E-08
   13.9200001       3.81994987E-08
   14.0400000       1.07927578E-08
   14.1599998      -2.55149413E-08
   14.2799997      -6.96634359E-08
   14.3999996      -1.19600813E-07
   14.5200005      -1.72230287E-07
   14.6400003      -2.23435890E-07
   14.7600002      -2.68201035E-07
   14.8800001      -3.00829726E-07
   15.0000000      -3.15273724E-07
   15.1199999      -3.05561059E-07
   15.2399998      -2.66313862E-07
   15.3599997      -1.93333932E-07
   15.4799995      -8.42267482E-08
   15.6000004       6.09735551E-08
   15.7200003       2.39220697E-07
   15.8400002       4.43960914E-07
   15.9600000       6.64773211E-07
   16.0799999       8.87190708E-07
   16.2000008       1.09274185E-06
   16.3199997       1.25924328E-06
   16.4400005       1.36136384E-06
   16.5599995       1.37146105E-06
   16.6800003       1.26068312E-06
   16.7999992       1.00030286E-06
   16.9200001       5.63239837E-07
   17.0400009      -7.42942490E-08
   17.1599998      -9.31101681E-07
   17.2800007      -2.01934586E-06
   17.3999996      -3.34303240E-06
   17.5200005      -4.89671902E-06
   17.6399994      -6.66454662E-06
   17.7600002      -8.61967692E-06
   17.8799992      -1.07241940E-05
   18.0000000      -1.29295267E-05
   18.1200008      -1.51774093E-05
   18.2399998      -1.74013821E-05
   18.3600006      -1.95287830E-05
   18.4799995      -2.14831962E-05
   18.6000004      -2.31872382E-05
   18.7199993      -2.45655974E-05
   18.8400002      -2.55481755E-05
   18.9599991      -2.60732122E-05
   19.0799999      -2.60902125E-05
   19.2000008      -2.55625546E-05
   19.3199997      -2.44696439E-05
   19.4400005      -2.28084773E-05
   19.5599995      -2.05945435E-05
   19.6800003      -1.78619794E-05
   19.7999992      -1.46629582E-05
   19.9200001      -1.10663359E-05
   20.0400009      -7.15556826E-06
   20.1599998      -3.02599824E-06
   20.2800007       1.21838991E-06
   20.3999996       5.46859201E-06
   20.5200005       9.61444675E-06
   20.6399994       1.35485670E-05
   20.7600002       1.71701668E-05
   20.8799992       2.03886120E-05
   21.0000000       2.31265731E-05
   21.1200008       2.53226099E-05
   21.2399998       2.69331122E-05
   21.3600006       2.79335254E-05
   21.4799995       2.83188110E-05
   21.6000004       2.81031407E-05
   21.7199993       2.73188834E-05
   21.8400002       2.60149045E-05
   21.9599991       2.42543192E-05
   22.0799999       2.21117607E-05
   22.2000008       1.96703495E-05
   22.3199997       1.70184430E-05
   22.4400005       1.42463614E-05
   22.5599995       1.14431750E-05
   22.6800003       8.69370615E-06
   22.7999992       6.07583524E-06
   22.9200001       3.65821302E-06
   23.0400009       1.49842310E-06
   23.1599998      -3.58345801E-07
   23.2800007      -1.88011484E-06
   23.3999996      -3.04841456E-06
   23.5200005      -3.85809653E-06
   23.6399994      -4.31669423E-06
   23.7600002      -4.44339321E-06
   23.8799992      -4.26766564E-06
   24.0000000      -3.82763801E-06
   24.1200008      -3.16826754E-06
   24.2399998      -2.33938704E-06
   24.3600006      -1.39369536E-06
   24.4799995      -3.84751445E-07
   24.6000004       6.34968728E-07
   24.7199993       1.61589628E-06
   24.8400002       2.51302754E-06
   24.9599991       3.28737156E-06
   25.0799999       3.90715104E-06
   25.2000008       4.34872209E-06
   25.3199997       4.59719104E-06
   25.4400005       4.64670393E-06
   25.5599995       4.50040761E-06
   25.6800003       4.17007368E-06
   25.7999992       3.67539906E-06
   25.9200001       3.04300647E-06
   26.0400009       2.30517048E-06
   26.1599998       1.49832590E-06
   26.2800007       6.61403249E-07
   26.3999996      -1.65935788E-07
   26.5200005      -9.45091926E-07
   26.6399994      -1.64027381E-06
   26.7600002      -2.22011681E-06
   26.8799992      -2.65909944E-06
   27.0000000      -2.93869152E-06
   27.1200008      -3.04817490E-06
   27.2399998      -2.98509849E-06
   27.3600006      -2.75534103E-06
   27.4799995      -2.37277573E-06
   27.6000004      -1.85855322E-06
   27.7199993      -1.24003600E-06
   27.8400002      -5.49432571E-07
   27.9599991       1.77796736E-07
   28.0799999       9.04687283E-07
   28.2000008       1.59458375E-06
   28.3199997       2.21292862E-06
   28.4400005       2.72893953E-06
   28.5599995       3.11708936E-06
   28.6800003       3.35832237E-06
   28.7999992       3.44094542E-06
   28.9200001       3.36115363E-06
   29.0400009       3.12316956E-06
   29.1599998       2.73899195E-06
   29.2800007       2.22776657E-06
   29.3999996       1.61481580E-06
   29.5200005       9.30370277E-07
   29.6399994       2.08067206E-07
   29.7600002      -5.16714181E-07
   29.8799992      -1.20859988E-06
   30.0000000      -1.83396799E-06
   30.1200008      -2.36261189E-06
   30.2399998      -2.76924084E-06
   30.3600006      -3.03474326E-06
   30.4799995      -3.14715544E-06
   30.6000004      -3.10228165E-06
   30.7199993      -2.90393677E-06
   30.8400002      -2.56379462E-06
   30.9599991      -2.10084045E-06
   31.0799999      -1.54045404E-06
   31.2000008      -9.13160136E-07
   31.3199997      -2.53104162E-07
   31.4400005       4.03673425E-07
   31.5599995       1.02107708E-06
   31.6800003       1.56481724E-06
   31.7999992       2.00419413E-06
   31.9200001       2.31371041E-06
   32.0400009       2.47441926E-06
   32.1599998       2.47494177E-06
   32.2799988       2.31208719E-06
   32.4000015       1.99104375E-06
   32.5200005       1.52513041E-06
   32.6399994       9.35114713E-07
   32.7599983       2.48139941E-07
   32.8800011      -5.03683566E-07
   33.0000000      -1.28494185E-06
   33.1199989      -2.05874517E-06
   33.2400017      -2.78861626E-06
   33.3600006      -3.44034106E-06
   33.4799995      -3.98367729E-06
   33.5999985      -4.39383348E-06
   33.7200012      -4.65264657E-06
   33.8400002      -4.74939452E-06
   33.9599991      -4.68121561E-06
   34.0800018      -4.45311525E-06
   34.2000008      -4.07757125E-06
   34.3199997      -3.57376143E-06
   34.4399986      -2.96646590E-06
   34.5600014      -2.28470117E-06
   34.6800003      -1.56016517E-06
   34.7999992      -8.25574716E-07
   34.9199982      -1.12983344E-07
   35.0400009       5.47831576E-07
   35.1599998       1.13082808E-06
   35.2799988       1.61492801E-06
   35.4000015       1.98494990E-06
   35.5200005       2.23219558E-06
   35.6399994       2.35465973E-06
   35.7599983       2.35685161E-06
   35.8800011       2.24923997E-06
   36.0000000       2.04735966E-06
   36.1199989       1.77063180E-06
   36.2400017       1.44098044E-06
   36.3600006       1.08133077E-06
   36.4799995       7.14095677E-07
   36.5999985       3.59751681E-07
   36.7200012       3.56033354E-08
   36.8400002      -2.45176579E-07
   36.9599991      -4.74164949E-07
   37.0800018      -6.47922263E-07
   37.2000008      -7.67830841E-07
   37.3199997      -8.39557572E-07
   37.4399986      -8.72189958E-07
   37.5600014      -8.77123512E-07
   37.6800003      -8.66798587E-07
   37.7999992      -8.53396898E-07
   37.9199982      -8.47612796E-07
   38.0400009      -8.57604959E-07
   38.1599998      -8.88221109E-07
   38.2799988      -9.40559346E-07
   38.4000015      -1.01190119E-06
   38.5200005      -1.09601831E-06
   38.6399994      -1.18381638E-06
   38.7599983      -1.26425482E-06
   38.8800011      -1.32544869E-06
   39.0000000      -1.35585015E-06
   39.1199989      -1.34539300E-06
   39.2400017      -1.28649401E-06
   39.3600006      -1.17481625E-06
   39.4799995      -1.00972386E-06
   39.5999985      -7.94388484E-07
   39.7200012      -5.35542881E-07
   39.8400002      -2.42911057E-07
   39.9599991       7.16244202E-08
   40.0800018       3.95029446E-07
   40.2000008       7.14197597E-07
   40.3199997       1.01699197E-06
   40.4399986       1.29314537E-06
   40.5600014       1.53493090E-06
   40.6800003       1.73753949E-06
   40.7999992       1.89913294E-06
   40.9199982       2.02057322E-06
   41.0400009       2.10486792E-06
   41.1599998       2.15639579E-06
   41.2799988       2.18000719E-06
   41.4000015       2.18010064E-06
   41.5200005       2.15978775E-06
   41.6399994       2.12024543E-06
   41.7599983       2.06033724E-06
   41.8800011       1.97656050E-06
   42.0000000       1.86333534E-06
   42.1199989       1.71362490E-06
   42.2400017       1.51983068E-06
   42.3600006       1.27488306E-06
   42.4799995       9.73417968E-07
   42.5999985       6.12920019E-07
   42.7200012       1.94708065E-07
   42.8400002      -2.75349009E-07
   42.9599991      -7.86479575E-07
   43.0800018      -1.32308196E-06
   43.2000008      -1.86524596E-06
   43.3199997      -2.38970870E-06
   43.4399986      -2.87118792E-06
   43.5600014      -3.28399801E-06
   43.6800003      -3.60383024E-06
   43.7999992      -3.80955180E-06
   43.9199982      -3.88488024E-06
   44.0400009      -3.81978543E-06
   44.1599998      -3.61150137E-06
   44.2799988      -3.26504460E-06
   44.4000015      -2.79319488E-06
   44.5200005      -2.21591563E-06
   44.6399994      -1.55925079E-06
   44.7599983      -8.53774907E-07
   44.8800011      -1.32707356E-07
   45.0000000       5.70168936E-07
   45.1199989       1.22262884E-06
   45.2400017       1.79600841E-06
   45.3600006       2.26694215E-06
   45.4799995       2.61871082E-06
   45.5999985       2.84210205E-06
   45.7200012       2.93573521E-06
   45.8400002       2.90583148E-06
   45.9599991       2.76546302E-06
   46.0800018       2.53334815E-06
   46.2000008       2.23229608E-06
   46.3199997       1.88742217E-06
   46.4399986       1.52427697E-06
   46.5600014       1.16702677E-06
   46.6800003       8.36820504E-07
   46.7999992       5.50454899E-07
   46.9199982       3.19429688E-07
   47.0400009       1.49445725E-07
   47.1599998       4.03688993E-08
   47.2799988      -1.33552245E-08
   47.4000015      -2.18830465E-08
   47.5200005       1.17211185E-09
   47.6399994       4.01140028E-08
   47.7599983       7.86531444E-08
   47.8800011       1.01394193E-07
   48.0000000       9.52054222E-08
   48.1199989       5.03668787E-08
   48.2400017      -3.85878742E-08
   48.3600006      -1.72397122E-07
   48.4799995      -3.46994568E-07
   48.5999985      -5.53833218E-07
   48.7200012      -7.80580024E-07
   48.8400002      -1.01212459E-06
   48.9599991      -1.23182110E-06
   49.0800018      -1.42286456E-06
   49.2000008      -1.56969122E-06
   49.3199997      -1.65928998E-06
   49.4399986      -1.68232066E-06
   49.5600014      -1.63394293E-06
   49.6800003      -1.51428867E-06
   49.7999992      -1.32853302E-06
   49.9199982      -1.08655422E-06
   50.0400009      -8.02206614E-07
   50.1599998      -4.92259971E-07
   50.2799988      -1.75093604E-07
   50.4000015       1.30749086E-07
   50.5200005       4.08021947E-07
   50.6399994       6.42127929E-07
   50.7599983       8.22241418E-07
   50.8800011       9.42100428E-07
   51.0000000       1.00039642E-06
   51.1199989       1.00072270E-06
   51.2400017       9.51086633E-07
   51.3600006       8.63028447E-07
   51.4799995       7.50429422E-07
   51.5999985       6.28120802E-07
   51.7200012       5.10426901E-07
   51.8400002       4.09780711E-07
   51.9599991       3.35546389E-07
   52.0800018       2.93161065E-07
   52.2000008       2.83679952E-07
   52.3199997       3.03767621E-07
   52.4399986       3.46135607E-07
   52.5600014       4.00382390E-07
   52.6800003       4.54151689E-07
   52.7999992       4.94494373E-07
   52.9199982       5.09297934E-07
   53.0400009       4.88642058E-07
   53.1599998       4.25946098E-07
   53.2799988       3.18793866E-07
   53.4000015       1.69354138E-07
   53.5200005      -1.56466431E-08
   53.6399994      -2.25399134E-07
   53.7599983      -4.45891430E-07
   53.8800011      -6.61115280E-07
   54.0000000      -8.54487837E-07
   54.1199989      -1.01036164E-06
   54.2400017      -1.11548366E-06
   54.3600006      -1.16027331E-06
   54.4799995      -1.13980252E-06
   54.5999985      -1.05438562E-06
   54.7200012      -9.09722814E-07
   54.8400002      -7.16576608E-07
   54.9599991      -4.90000048E-07
   55.0800018      -2.48173791E-07
   55.2000008      -1.09426743E-08
   55.3199997       2.01832862E-07
   55.4399986       3.71976824E-07
   55.5600014       4.84609870E-07
   55.6800003       5.29539363E-07
   55.7999992       5.02306136E-07
   55.9199982       4.04794037E-07
   56.0400009       2.45338356E-07
   56.1599998       3.83069896E-08
   56.2799988      -1.96830243E-07
   56.4000015      -4.36890474E-07
   56.5200005      -6.56732880E-07
   56.6399994      -8.31257239E-07
   56.7599983      -9.37499919E-07
   56.8800011      -9.56668714E-07
   57.0000000      -8.75955152E-07
   57.1199989      -6.89975195E-07
   57.2400017      -4.01708775E-07
   57.3600006      -2.28433414E-08
   57.4799995       4.26534967E-07
   57.5999985       9.18910814E-07
   57.7200012       1.42092949E-06
   57.8400002       1.89551815E-06
   57.9599991       2.30440492E-06
   58.0800018       2.61086620E-06
   58.2000008       2.78250968E-06
   58.3199997       2.79388064E-06
   58.4399986       2.62869457E-06
   58.5600014       2.28150952E-06
   58.6800003       1.75868774E-06
   58.7999992       1.07855067E-06
   58.9199982       2.70679607E-07
   59.0400009      -6.25611619E-07
   59.1599998      -1.56354849E-06
   59.2799988      -2.49176423E-06
   59.4000015      -3.35756681E-06
   59.5200005      -4.11037308E-06
   59.6399994      -4.70505483E-06
   59.7599983      -5.10494920E-06
   59.8800011      -5.28430883E-06
   60.0000000      -5.22999517E-06
   60.1199989      -4.94230790E-06
   60.2400017      -4.43487170E-06
   60.3600006      -3.73361763E-06
   60.4799995      -2.87493685E-06
   60.5999985      -1.90317314E-06
   60.7200012      -8.67654592E-07
   60.8400002       1.80493572E-07
   60.9599991       1.19151161E-06
   61.0800018       2.11990823E-06
   61.2000008       2.92690129E-06
   61.3199997       3.58224929E-06
   61.4399986       4.06537947E-06
   61.5600014       4.36578557E-06
   61.6800003       4.48273431E-06
   61.7999992       4.42436794E-06
   61.9199982       4.20634206E-06
   62.0400009       3.85014937E-06
   62.1599998       3.38130621E-06
   62.2799988       2.82754922E-06
   62.4000015       2.21718574E-06
   62.5200005       1.57769648E-06
   62.6399994       9.34646039E-07
   62.7599983       3.10928812E-07
   62.8800011      -2.73671844E-07
   63.0000000      -8.02652494E-07
   63.1199989      -1.26275347E-06
   63.2400017      -1.64379003E-06
   63.3600006      -1.93842129E-06
   63.4799995      -2.14192119E-06
   63.5999985      -2.25199028E-06
   63.7200012      -2.26864040E-06
   63.8400002      -2.19414824E-06
   63.9599991      -2.03306490E-06
   64.0800018      -1.79225049E-06
   64.1999969      -1.48089100E-06
   64.3199997      -1.11045745E-06
   64.4400024      -6.94568200E-07
   64.5599976      -2.48723637E-07
   64.6800003       2.10096388E-07
   64.8000031       6.63973708E-07
   64.9199982       1.09471159E-06
   65.0400009       1.48458173E-06
   65.1600037       1.81711562E-06
   65.2799988       2.07789230E-06
   65.4000015       2.25527288E-06
   65.5199966       2.34103277E-06
   65.6399994       2.33085484E-06
   65.7600021       2.22464769E-06
   65.8799973       2.02666956E-06
   66.0000000       1.74544505E-06
   66.1200027       1.39347480E-06
   66.2399979       9.86745704E-07
   66.3600006       5.44054842E-07
   66.4800034       8.61711626E-08
   66.5999985      -3.65136344E-07
   66.7200012      -7.88168336E-07
   66.8399963      -1.16241824E-06
   66.9599991      -1.46969603E-06
   67.0800018      -1.69519308E-06
   67.1999969      -1.82842234E-06
   67.3199997      -1.86396403E-06
   67.4400024      -1.80195173E-06
   67.5599976      -1.64824269E-06
   67.6800003      -1.41423050E-06
   67.8000031      -1.11628333E-06
   67.9199982      -7.74818091E-07
   68.0400009      -4.13048241E-07
   68.1600037      -5.54777806E-08
   68.2799988       2.73763078E-07
   68.4000015       5.52624385E-07
   68.5199966       7.62755576E-07
   68.6399994       8.90909064E-07
   68.7600021       9.30009833E-07
   68.8799973       8.79793390E-07
   69.0000000       7.46946057E-07
   69.1200027       5.44716841E-07
   69.2399979       2.92013482E-07
   69.3600006       1.20341586E-08
   69.4800034      -2.69473816E-07
   69.5999985      -5.26205611E-07
   69.7200012      -7.33393676E-07
   69.8399963      -8.69845451E-07
   69.9599991      -9.19761817E-07
   70.0800018      -8.74184366E-07
   70.1999969      -7.31942919E-07
   70.3199997      -5.00007104E-07
   70.4400024      -1.93190914E-07
   70.5599976       1.66790670E-07
   70.6800003       5.52861195E-07
   70.8000031       9.34612842E-07
   70.9199982       1.28067643E-06
   71.0400009       1.56124327E-06
   71.1600037       1.75053185E-06
   71.2799988       1.82898782E-06
   71.4000015       1.78502603E-06
   71.5199966       1.61615185E-06
   71.6399994       1.32935907E-06
   71.7600021       9.40756138E-07
   71.8799973       4.74446779E-07
   72.0000000      -3.92456911E-08
   72.1200027      -5.66060351E-07
   72.2399979      -1.07039182E-06
   72.3600006      -1.51797349E-06
   72.4800034      -1.87842079E-06
   72.5999985      -2.12742816E-06
   72.7200012      -2.24843780E-06