  -30.0000000       0.00000000    
  -29.8799992       0.00000000    
  -29.7600002       0.00000000    
  -29.6399994       0.00000000    
  -29.5200005       0.00000000    
  -29.3999996       0.00000000    
  -29.2800007       0.00000000    
  -29.1599998       0.00000000    
  -29.0400009       0.00000000    
  -28.9200001      -5.60519386E-44
  -28.7999992       6.15848254E-40
  -28.6800003       3.89902890E-39
  -28.5599995      -4.70438596E-39
  -28.4400005      -1.17734328E-37
  -28.3199997      -2.13164872E-37
  -28.2000008       3.18049964E-36
  -28.0799999       3.00281983E-35
  -27.9599991       1.49256065E-34
  -27.8400002       5.19702078E-34
  -27.7199993       1.35686845E-33
  -27.6000004       2.62864561E-33
  -27.4799995       3.26915558E-33
  -27.3600006       1.03914803E-34
  -27.2399998      -1.22319687E-32
  -27.1200008      -3.77661238E-32
  -27.0000000      -6.97551807E-32
  -26.8799992      -7.81102595E-32
  -26.7600002      -7.68197607E-33
  -26.6399994       1.87013017E-31
  -26.5200005       4.50899791E-31
  -26.3999996       5.09923431E-31
  -26.2800007      -1.46445085E-31
  -26.1599998      -1.95045640E-30
  -26.0400009      -4.41155093E-30
  -25.9200001      -4.91657264E-30
  -25.7999992       1.83412195E-30
  -25.6800003       2.17853326E-29
  -25.5599995       5.47329850E-29
  -25.4400005       8.28171061E-29
  -25.3199997       6.01529431E-29
  -25.2000008      -8.21177829E-29
  -25.0799999      -3.95593666E-28
  -24.9599991      -8.27573830E-28
  -24.8400002      -1.10872494E-27
  -24.7199993      -6.95906522E-28
  -24.6000004       1.08984206E-27
  -24.4799995       4.58978919E-27
  -24.3600006       8.99561355E-27
  -24.2399998       1.15151683E-26
  -24.1200008       7.25616755E-27
  -24.0000000      -9.16636727E-27
  -23.8799992      -3.96081144E-26
  -23.7600002      -7.65385945E-26
  -23.6399994      -9.81068159E-26
  -23.5200005      -6.91151854E-26
  -23.3999996       4.65757160E-26
  -23.2800007       2.59901984E-25
  -23.1599998       5.22405582E-25
  -23.0400009       7.00865641E-25
  -22.9200001       5.86669594E-25
  -22.7999992      -3.52702607E-26
  -22.6800003      -1.25180955E-24
  -22.5599995      -2.85198007E-24
  -22.4400005      -4.19928212E-24
  -22.3199997      -4.25549004E-24
  -22.2000008      -1.85766942E-24
  -22.0799999       3.71993907E-24
  -21.9599991       1.20201584E-23
  -21.8400002       2.07382350E-23
  -21.7199993       2.55369910E-23
  -21.6000004       2.07646350E-23
  -21.4799995       1.34209448E-24
  -21.3600006      -3.42848163E-23
  -21.2399998      -8.07922246E-23
  -21.1200008      -1.23518616E-22
  -21.0000000      -1.38681167E-22
  -20.8799992      -9.80799599E-23
  -20.7600002       2.06781474E-23
  -20.6399994       2.19256202E-22
  -20.5200005       4.62641046E-22
  -20.3999996       6.69074712E-22
  -20.2800007       7.14985154E-22
  -20.1599998       4.63342110E-22
  -20.0400009      -1.81542908E-22
  -19.9200001      -1.20049595E-21
  -19.7999992      -2.38931625E-21
  -19.6800003      -3.32723950E-21
  -19.5599995      -3.42419533E-21
  -19.4400005      -2.07610924E-21
  -19.3199997       1.07369639E-21
  -19.2000008       5.81803704E-21
  -19.0799999       1.11208755E-20
  -18.9599991       1.50517274E-20
  -18.8400002       1.50690029E-20
  -18.7199993       8.74014141E-21
  -18.6000004      -5.14874049E-21
  -18.4799995      -2.53364388E-20
  -18.3600006      -4.71361440E-20
  -18.2399998      -6.23854254E-20
  -18.1200008      -6.08622305E-20
  -18.0000000      -3.34335999E-20
  -17.8799992       2.34021173E-20
  -17.7600002       1.02750295E-19
  -17.6399994       1.84315266E-19
  -17.5200005       2.35528280E-19
  -17.3999996       2.18695982E-19
  -17.2800007       1.04393967E-19
  -17.1599998      -1.11419613E-19
  -17.0400009      -3.92225162E-19
  -16.9200001      -6.55562349E-19
  -16.7999992      -7.85004689E-19
  -16.6800003      -6.63026310E-19
  -16.5599995      -2.20531625E-19
  -16.4400005       5.10863593E-19
  -16.3199997       1.36565668E-18
  -16.2000008       2.05385182E-18
  -16.0799999       2.22796962E-18
  -15.9600000       1.60365237E-18
  -15.8400002       1.04304490E-19
  -15.7200003      -2.02274177E-18
  -15.6000004      -4.17999675E-18
  -15.4799995      -5.53001135E-18
  -15.3599997      -5.24725248E-18
  -15.2399998      -2.85768547E-18
  -15.1199999       1.44512144E-18
  -15.0000000       6.64786984E-18
  -14.8800001       1.10482544E-17
  -14.7600002       1.27074017E-17
  -14.6400003       1.01399158E-17
  -14.5200005       3.03181009E-18
  -14.3999996      -7.29782494E-18
  -14.2799997      -1.79506862E-17
  -14.1599998      -2.51353950E-17
  -14.0400000      -2.53718165E-17
  -13.9200001      -1.68571782E-17
  -13.8000002      -4.87497395E-19
  -13.6800003       1.99398901E-17
  -13.5600004       3.85727157E-17
  -13.4399996       4.92337239E-17
  -13.3199997       4.74689804E-17
  -13.1999998       3.21313478E-17
  -13.0799999       5.82177036E-18
  -12.9600000      -2.60413629E-17
  -12.8400002      -5.71192168E-17
  -12.7200003      -8.20731780E-17
  -12.6000004      -9.74459790E-17
  -12.4799995      -1.00910569E-16
  -12.3599997      -8.92617415E-17
  -12.2399998      -5.65872206E-17
  -12.1199999       5.38617622E-18
  -12.0000000       1.03244707E-16
  -11.8800001       2.34254347E-16
  -11.7600002       3.77646093E-16
  -11.6400003       4.89450154E-16
  -11.5200005       5.06136173E-16
  -11.3999996       3.60500637E-16
  -11.2799997       8.89742350E-18
  -11.1599998      -5.36864305E-16
  -11.0400000      -1.18472116E-15
  -10.9200001      -1.75831281E-15
  -10.8000002      -2.02419275E-15
  -10.6800003      -1.75222508E-15
  -10.5600004      -7.98996332E-16
  -10.4399996       8.08001404E-16
  -10.3199997       2.81507165E-15
  -10.1999998       4.74453096E-15
  -10.0799999       5.97176566E-15
  -9.96000004       5.87437254E-15
  -9.84000015       4.02637111E-15
  -9.72000027       3.88905357E-16
  -9.60000038      -4.56247267E-15
  -9.47999954      -9.82939384E-15
  -9.35999966      -1.40340366E-14
  -9.23999977      -1.57096101E-14
  -9.11999989      -1.36886216E-14
  -9.00000000      -7.49997530E-15
  -8.88000011       2.33582761E-15
  -8.76000023       1.42173870E-14
  -8.64000034       2.56442681E-14
  -8.52000046       3.36705083E-14
  -8.39999962       3.55547670E-14
  -8.27999973       2.94678629E-14
  -8.15999985       1.50867681E-14
  -8.03999996      -6.08219843E-15
  -7.92000008      -3.07501725E-14
  -7.80000019      -5.42767566E-14
  -7.67999983      -7.14141542E-14
  -7.55999994      -7.72345851E-14
  -7.44000006      -6.80930938E-14
  -7.32000017      -4.24949823E-14
  -7.19999981      -1.76709549E-15
  -7.07999992       4.95538533E-14
  -6.96000004       1.03719455E-13
  -6.84000015       1.50295032E-13
  -6.71999979       1.77369716E-13
  -6.59999990       1.73549014E-13
  -6.48000002       1.30650319E-13
  -6.36000013       4.67345042E-14
  -6.23999977      -7.12244052E-14
  -6.11999989      -2.05971552E-13
  -6.00000000      -3.30853617E-13
  -5.88000011      -4.13565395E-13
  -5.76000023      -4.22693727E-13
  -5.63999987      -3.36089121E-13
  -5.51999998      -1.49221754E-13
  -5.40000010       1.18859322E-13
  -5.28000021       4.24285878E-13
  -5.15999985       7.03383424E-13
  -5.03999996       8.84050157E-13
  -4.92000008       9.01860130E-13
  -4.80000019       7.17616450E-13
  -4.67999983       3.32070959E-13
  -4.55999994      -2.06487022E-13
  -4.44000006      -8.04931100E-13
  -4.32000017      -1.33930725E-12
  -4.19999981      -1.67847821E-12
  -4.07999992      -1.71310709E-12
  -3.96000004      -1.38383239E-12
  -3.83999991      -7.01931514E-13
  -3.72000003       2.43194462E-13
  -3.59999990       1.29289895E-12
  -3.48000002       2.24425968E-12
  -3.35999990       2.88721824E-12
  -3.24000001       3.04698714E-12
  -3.11999989       2.62324884E-12
  -3.00000000       1.61790644E-12
  -2.88000011       1.45173532E-13
  -2.75999999      -1.57885846E-12
  -2.64000010      -3.26614777E-12
  -2.51999998      -4.60148933E-12
  -2.40000010      -5.29495241E-12
  -2.27999997      -5.13358973E-12
  -2.16000009      -4.02429956E-12
  -2.03999996      -2.02117750E-12
  -1.91999996       6.67178606E-13
  -1.79999995       3.69249509E-12
  -1.67999995       6.60338494E-12
  -1.55999994       8.90085922E-12
  -1.44000006       1.01076664E-11
  -1.32000005       9.84403965E-12
  -1.20000005       7.90038434E-12
  -1.08000004       4.29594511E-12
 -0.959999979      -6.87827453E-13
 -0.839999974      -6.50898909E-12
 -0.720000029      -1.24079956E-11
 -0.600000024      -1.74918673E-11
 -0.479999989      -2.08522002E-11
 -0.360000014      -2.17018330E-11
 -0.239999995      -1.95088373E-11
 -0.119999997      -1.41041475E-11
  -1.11022302E-15  -5.74178812E-12
  0.119999997       4.90124000E-12
  0.239999995       1.67862859E-11
  0.360000014       2.86234317E-11
  0.479999989       3.90085603E-11
  0.600000024       4.65609842E-11
  0.720000029       5.00401526E-11
  0.839999974       4.84318072E-11
  0.959999979       4.10094285E-11
   1.08000004       2.73895039E-11
   1.20000005       7.60358963E-12
   1.32000005      -1.77977719E-11
   1.44000006      -4.76128581E-11
   1.55999994      -7.98562536E-11
   1.67999995      -1.11673733E-10
   1.79999995      -1.39359010E-10
   1.91999996      -1.58513258E-10
   2.03999996      -1.64356181E-10
   2.16000009      -1.52153581E-10
   2.27999997      -1.17686957E-10
   2.40000010      -5.76668227E-11
   2.51999998       3.00018031E-11
   2.64000010       1.46158530E-10
   2.75999999       2.90532820E-10
   2.88000011       4.62038463E-10
   3.00000000       6.59120092E-10
   3.11999989       8.80047368E-10
   3.24000001       1.12307985E-09
   3.35999990       1.38648548E-09
   3.48000002       1.66845471E-09
   3.59999990       1.96700300E-09
   3.72000003       2.27996400E-09
   3.83999991       2.60514255E-09
   3.96000004       2.94063374E-09
   4.07999992       3.28524541E-09
   4.19999981       3.63889563E-09
   4.32000017       4.00286160E-09
   4.44000006       4.37977787E-09
   4.55999994       4.77336481E-09
   4.67999983       5.18795940E-09
   4.80000019       5.62798963E-09
   4.92000008       6.09754158E-09
   5.03999996       6.60016797E-09
   5.15999985       7.13895831E-09
   5.28000021       7.71684050E-09
   5.40000010       8.33696934E-09
   5.51999998       9.00304453E-09
   5.63999987       9.71943503E-09
   5.76000023       1.04910454E-08
   5.88000011       1.13230065E-08
   6.00000000       1.22203065E-08
   6.11999989       1.31875399E-08
   6.23999977       1.42289220E-08
   6.36000013       1.53485811E-08
   6.48000002       1.65510787E-08
   6.59999990       1.78419608E-08
   6.71999979       1.92281266E-08
   6.84000015       2.07178417E-08
   6.96000004       2.23203092E-08
   7.07999992       2.40448763E-08
   7.19999981       2.59000696E-08
   7.32000017       2.78927530E-08
   7.44000006       3.00276852E-08
   7.55999994       3.23076321E-08
   7.67999983       3.47341462E-08
   7.80000019       3.73087694E-08
   7.92000008       4.00345073E-08
   8.03999996       4.29172111E-08
   8.15999985       4.59665337E-08
   8.27999973       4.91963483E-08
   8.39999962       5.26245678E-08
   8.52000046       5.62724445E-08
   8.64000034       6.01636074E-08
   8.76000023       6.43230109E-08
   8.88000011       6.87760746E-08
   9.00000000       7.35480086E-08
   9.11999989       7.86634615E-08
   9.23999977       8.41462580E-08
   9.35999966       9.00193058E-08
   9.47999954       9.63045466E-08
   9.60000038       1.03022927E-07
   9.72000027       1.10194513E-07
   9.84000015       1.17838809E-07
   9.96000004       1.25975347E-07
   10.0799999       1.34624528E-07
   10.1999998       1.43808691E-07
   10.3199997       1.53552989E-07
   10.4399996       1.63886156E-07
   10.5600004       1.74840736E-07
   10.6800003       1.86452993E-07
   10.8000002       1.98762237E-07
   10.9200001       2.11809933E-07
   11.0400000       2.25638772E-07
   11.1599998       2.40291968E-07
   11.2799997       2.55812580E-07
   11.3999996       2.72243369E-07
   11.5200005       2.89626854E-07
   11.6400003       3.08005639E-07
   11.7600002       3.27422669E-07
   11.8800001       3.47922082E-07
   12.0000000       3.69549952E-07
   12.1199999       3.92355275E-07
   12.2399998       4.16391231E-07
   12.3599997       4.41716281E-07
   12.4799995       4.68394916E-07
   12.6000004       4.96497819E-07
   12.7200003       5.26100905E-07
   12.8400002       5.57283840E-07
   12.9600000       5.90127854E-07
   13.0799999       6.24713380E-07
   13.1999998       6.61118634E-07
   13.3199997       6.99419104E-07
   13.4399996       7.39688232E-07
   13.5600004       7.82000200E-07
   13.6800003       8.26432199E-07
   13.8000002       8.73067336E-07
   13.9200001       9.21996502E-07
   14.0400000       9.73318606E-07
   14.1599998       1.02713943E-06
   14.2799997       1.08356983E-06
   14.3999996       1.14272234E-06
   14.5200005       1.20470997E-06
   14.6400003       1.26964426E-06
   14.7600002       1.33763592E-06
   14.8800001       1.40879604E-06
   15.0000000       1.48323727E-06
   15.1199999       1.56107603E-06
   15.2399998       1.64243261E-06
   15.3599997       1.72743125E-06
   15.4799995       1.81619873E-06
   15.6000004       1.90886408E-06
   15.7200003       2.00555723E-06
   15.8400002       2.10641019E-06
   15.9600000       2.21155778E-06
   16.0799999       2.32114007E-06
   16.2000008       2.43530462E-06
   16.3199997       2.55420673E-06
   16.4400005       2.67800965E-06
   16.5599995       2.80688050E-06
   16.6800003       2.94098777E-06
   16.7999992       3.08049584E-06
   16.9200001       3.22556320E-06
   17.0400009       3.37633742E-06
   17.1599998       3.53295991E-06
   17.2800007       3.69556642E-06
   17.3999996       3.86429201E-06
   17.5200005       4.03927652E-06
   17.6399994       4.22066751E-06
   17.7600002       4.40862323E-06
   17.8799992       4.60330875E-06
   18.0000000       4.80489689E-06
   18.1200008       5.01356135E-06
   18.2399998       5.22947494E-06
   18.3600006       5.45280454E-06
   18.4799995       5.68371479E-06
   18.6000004       5.92236438E-06
   18.7199993       6.16891384E-06
   18.8400002       6.42352279E-06
   18.9599991       6.68635130E-06
   19.0799999       6.95755944E-06
   19.2000008       7.23730318E-06
   19.3199997       7.52572760E-06
   19.4400005       7.82296866E-06
   19.5599995       8.12914914E-06
   19.6800003       8.44438000E-06
   19.7999992       8.76876675E-06
   19.9200001       9.10240942E-06
   20.0400009       9.44540989E-06
   20.1599998       9.79787455E-06
   20.2800007       1.01599126E-05
   20.3999996       1.05316321E-05
   20.5200005       1.09131424E-05
   20.6399994       1.13045417E-05
   20.7600002       1.17059208E-05
   20.8799992       1.21173562E-05
   21.0000000       1.25389142E-05
   21.1200008       1.29706468E-05
   21.2399998       1.34125894E-05
   21.3600006       1.38647683E-05
   21.4799995       1.43271964E-05
   21.6000004       1.47998744E-05
   21.7199993       1.52827906E-05
   21.8400002       1.57759205E-05
   21.9599991       1.62792385E-05
   22.0799999       1.67927064E-05
   22.2000008       1.73162771E-05
   22.3199997       1.78499013E-05
   22.4400005       1.83935099E-05
   22.5599995       1.89470265E-05
   22.6800003       1.95103530E-05
   22.7999992       2.00833747E-05
   22.9200001       2.06659479E-05
   23.0400009       2.12579180E-05
   23.1599998       2.18591031E-05
   23.2800007       2.24693176E-05
   23.3999996       2.30883597E-05
   23.5200005       2.37160202E-05
   23.6399994       2.43520826E-05
   23.7600002       2.49963105E-05
   23.8799992       2.56484527E-05
   24.0000000       2.63082384E-05
   24.1200008       2.69753637E-05
   24.2399998       2.76495120E-05
   24.3600006       2.83303452E-05
   24.4799995       2.90175067E-05
   24.6000004       2.97106399E-05
   24.7199993       3.04093774E-05
   24.8400002       3.11133444E-05
   24.9599991       3.18221610E-05
   25.0799999       3.25354195E-05
   25.2000008       3.32527052E-05
   25.3199997       3.39735489E-05
   25.4400005       3.46974739E-05
   25.5599995       3.54239637E-05
   25.6800003       3.61524726E-05
   25.7999992       3.68824512E-05
   25.9200001       3.76133212E-05
   26.0400009       3.83445076E-05
   26.1599998       3.90754321E-05
   26.2800007       3.98055054E-05
   26.3999996       4.05341234E-05
   26.5200005       4.12606787E-05
   26.6399994       4.19845455E-05
   26.7600002       4.27050800E-05
   26.8799992       4.34216199E-05
   27.0000000       4.41335105E-05
   27.1200008       4.48400715E-05
   27.2399998       4.55406262E-05
   27.3600006       4.62344833E-05
   27.4799995       4.69209372E-05
   27.6000004       4.75992856E-05
   27.7199993       4.82688010E-05
   27.8400002       4.89287522E-05
   27.9599991       4.95783897E-05
   28.0799999       5.02169569E-05
   28.2000008       5.08436788E-05
   28.3199997       5.14577987E-05
   28.4400005       5.20585381E-05
   28.5599995       5.26451222E-05
   28.6800003       5.32167869E-05
   28.7999992       5.37727574E-05
   28.9200001       5.43122660E-05
   29.0400009       5.48345524E-05
   29.1599998       5.53388418E-05
   29.2800007       5.58243846E-05
   29.3999996       5.62904206E-05
   29.5200005       5.67362040E-05
   29.6399994       5.71609671E-05
   29.7600002       5.75639751E-05
   29.8799992       5.79444786E-05
   30.0000000       5.83017390E-05
   30.1200008       5.86350325E-05
   30.2399998       5.89436313E-05
   30.3600006       5.92268370E-05
   30.4799995       5.94839585E-05
   30.6000004       5.97143080E-05
   30.7199993       5.99172199E-05
   30.8400002       6.00920357E-05
   30.9599991       6.02381042E-05
   31.0799999       6.03547924E-05
   31.2000008       6.04414599E-05
   31.3199997       6.04975066E-05
   31.4400005       6.05223322E-05
   31.5599995       6.05153618E-05
   31.6800003       6.04760462E-05
   31.7999992       6.04038578E-05
   31.9200001       6.02982873E-05
   32.0400009       6.01588472E-05
   32.1599998       5.99850828E-05
   32.2799988       5.97765465E-05
   32.4000015       5.95328202E-05
   32.5200005       5.92535107E-05
   32.6399994       5.89382289E-05
   32.7599983       5.85866219E-05
   32.8800011       5.81983586E-05
   33.0000000       5.77731262E-05
   33.1199989       5.73106372E-05
   33.2400017       5.68106261E-05
   33.3600006       5.62728419E-05
   33.4799995       5.56970517E-05
   33.5999985       5.50830446E-05
   33.7200012       5.44306240E-05
   33.8400002       5.37396118E-05
   33.9599991       5.30098732E-05
   34.0800018       5.22412920E-05
   34.2000008       5.14338062E-05
   34.3199997       5.05873941E-05
   34.4399986       4.97020810E-05
   34.5600014       4.87779289E-05
   34.6800003       4.78150287E-05
   34.7999992       4.68135113E-05
   34.9199982       4.57735005E-05
   35.0400009       4.46951344E-05
   35.1599998       4.35785551E-05
   35.2799988       4.24239151E-05
   35.4000015       4.12313784E-05
   35.5200005       4.00011450E-05
   35.6399994       3.87334439E-05
   35.7599983       3.74285555E-05
   35.8800011       3.60867998E-05
   36.0000000       3.47085479E-05
   36.1199989       3.32941963E-05
   36.2400017       3.18441707E-05
   36.3600006       3.03589168E-05
   36.4799995       2.88388856E-05
   36.5999985       2.72845373E-05
   36.7200012       2.56963267E-05
   36.8400002       2.40747140E-05
   36.9599991       2.24201522E-05
   37.0800018       2.07331050E-05
   37.2000008       1.90140436E-05
   37.3199997       1.72634445E-05
   37.4399986       1.54818117E-05
   37.5600014       1.36696708E-05
   37.6800003       1.18275730E-05
   37.7999992       9.95610844E-06
   37.9199982       8.05589934E-06
   38.0400009       6.12760277E-06
   38.1599998       4.17189995E-06
   38.2799988       2.18949208E-06
   38.4000015       1.81088609E-07
   38.5200005      -1.85260240E-06
   38.6399994      -3.91088042E-06
   38.7599983      -5.99306350E-06
   38.8800011      -8.09848279E-06
   39.0000000      -1.02264876E-05
   39.1199989      -1.23764339E-05
   39.2400017      -1.45476806E-05
   39.3600006      -1.67395829E-05
   39.4799995      -1.89514831E-05
   39.5999985      -2.11827046E-05
   39.7200012      -2.34325507E-05
   39.8400002      -2.57003157E-05
   39.9599991      -2.79852829E-05
   40.0800018      -3.02867411E-05
   40.2000008      -3.26039954E-05
   40.3199997      -3.49363690E-05
   40.4399986      -3.72832255E-05
   40.5600014      -3.96439536E-05
   40.6800003      -4.20179858E-05
   40.7999992      -4.44047619E-05
   40.9199982      -4.68037542E-05
   41.0400009      -4.92144463E-05
   41.1599998      -5.16363289E-05
   41.2799988      -5.40688925E-05
   41.4000015      -5.65116352E-05
   41.5200005      -5.89640767E-05
   41.6399994      -6.14257515E-05
   41.7599983      -6.38962083E-05
   41.8800011      -6.63750470E-05
   42.0000000      -6.88618602E-05
   42.1199989      -7.13562913E-05
   42.2400017      -7.38580420E-05
   42.3600006      -7.63668286E-05
   42.4799995      -7.88824109E-05
   42.5999985      -8.14046216E-05
   42.7200012      -8.39333225E-05
   42.8400002      -8.64684189E-05
   42.9599991      -8.90098308E-05
   43.0800018      -9.15575220E-05
   43.2000008      -9.41114849E-05
   43.3199997      -9.66717271E-05
   43.4399986      -9.92382993E-05
   43.5600014      -1.01811282E-04
   43.6800003      -1.04390827E-04
   43.7999992      -1.06977146E-04
   43.9199982      -1.09570472E-04
   44.0400009      -1.12171110E-04
   44.1599998      -1.14779388E-04
   44.2799988      -1.17395728E-04
   44.4000015      -1.20020559E-04
   44.5200005      -1.22654354E-04
   44.6399994      -1.25297622E-04
   44.7599983      -1.27950931E-04
   44.8800011      -1.30614862E-04
   45.0000000      -1.33290043E-04
   45.1199989      -1.35977141E-04
   45.2400017      -1.38676900E-04
   45.3600006      -1.41390105E-04
   45.4799995      -1.44117585E-04
   45.5999985      -1.46860242E-04
   45.7200012      -1.49618980E-04
   45.8400002      -1.52394758E-04
   45.9599991      -1.55188580E-04
   46.0800018      -1.58001450E-04
   46.2000008      -1.60834446E-04
   46.3199997      -1.63688674E-04
   46.4399986      -1.66565296E-04
   46.5600014      -1.69465464E-04
   46.6800003      -1.72390413E-04
   46.7999992      -1.75341382E-04
   46.9199982      -1.78319591E-04
   47.0400009      -1.81326308E-04
   47.1599998      -1.84362812E-04
   47.2799988      -1.87430385E-04
   47.4000015      -1.90530351E-04
   47.5200005      -1.93664047E-04
   47.6399994      -1.96832916E-04
   47.7599983      -2.00038339E-04
   47.8800011      -2.03281787E-04
   48.0000000      -2.06564699E-04
   48.1199989      -2.09888516E-04
   48.2400017      -2.13254709E-04
   48.3600006      -2.16664659E-04
   48.4799995      -2.20119764E-04
   48.5999985      -2.23621450E-04
   48.7200012      -2.27170996E-04
   48.8400002      -2.30769729E-04
   48.9599991      -2.34418898E-04
   49.0800018      -2.38119741E-04
   49.2000008      -2.41873509E-04
   49.3199997      -2.45681411E-04
   49.4399986      -2.49544653E-04
   49.5600014      -2.53464386E-04
   49.6800003      -2.57441774E-04
   49.7999992      -2.61477893E-04
   49.9199982      -2.65573792E-04
   50.0400009      -2.69730401E-04
   50.1599998      -2.73948594E-04
   50.2799988      -2.78229214E-04
   50.4000015      -2.82573019E-04
   50.5200005      -2.86980678E-04
   50.6399994      -2.91452801E-04
   50.7599983      -2.95989972E-04
   50.8800011      -3.00592656E-04
   51.0000000      -3.05261230E-04
   51.1199989      -3.09995958E-04
   51.2400017      -3.14797013E-04
   51.3600006      -3.19664483E-04
   51.4799995      -3.24598281E-04
   51.5999985      -3.29598261E-04
   51.7200012      -3.34664073E-04
   51.8400002      -3.39795370E-04
   51.9599991      -3.44991655E-04
   52.0800018      -3.50252347E-04
   52.2000008      -3.55576689E-04
   52.3199997      -3.60963924E-04
   52.4399986      -3.66413122E-04
   52.5600014      -3.71923146E-04
   52.6800003      -3.77492805E-04
   52.7999992      -3.83120700E-04
   52.9199982      -3.88805289E-04
   53.0400009      -3.94544943E-04
   53.1599998      -4.00337827E-04
   53.2799988      -4.06181993E-04
   53.4000015      -4.12075286E-04
   53.5200005      -4.18015436E-04
   53.6399994      -4.23999969E-04
   53.7599983      -4.30026295E-04
   53.8800011      -4.36091679E-04
   54.0000000      -4.42193181E-04
   54.1199989      -4.48327890E-04
   54.2400017      -4.54492663E-04
   54.3600006      -4.60684212E-04
   54.4799995      -4.66899102E-04
   54.5999985      -4.73133725E-04
   54.7200012      -4.79384267E-04
   54.8400002      -4.85646829E-04
   54.9599991      -4.91917250E-04
   55.0800018      -4.98191337E-04
   55.2000008      -5.04464726E-04
   55.3199997      -5.10732934E-04
   55.4399986      -5.16991189E-04
   55.5600014      -5.23234892E-04
   55.6800003      -5.29459037E-04
   55.7999992      -5.35658561E-04
   55.9199982      -5.41828340E-04
   56.0400009      -5.47962904E-04
   56.1599998      -5.54056780E-04
   56.2799988      -5.60104440E-04
   56.4000015      -5.66100236E-04
   56.5200005      -5.72038407E-04
   56.6399994      -5.77913015E-04
   56.7599983      -5.83718123E-04
   56.8800011      -5.89447736E-04
   57.0000000      -5.95095567E-04
   57.1199989      -6.00655505E-04
   57.2400017      -6.06121263E-04
   57.3600006      -6.11486554E-04
   57.4799995      -6.16744801E-04
   57.5999985      -6.21889601E-04
   57.7200012      -6.26914320E-04
   57.8400002      -6.31812320E-04
   57.9599991      -6.36576850E-04
   58.0800018      -6.41201274E-04
   58.2000008      -6.45678956E-04
   58.3199997      -6.50003145E-04
   58.4399986      -6.54167205E-04
   58.5600014      -6.58164558E-04
   58.6800003      -6.61988568E-04
   58.7999992      -6.65632659E-04
   58.9199982      -6.69090310E-04
   59.0400009      -6.72354829E-04
   59.1599998      -6.75419928E-04
   59.2799988      -6.78279030E-04
   59.4000015      -6.80925732E-04
   59.5200005      -6.83353865E-04
   59.6399994      -6.85557199E-04
   59.7599983      -6.87529624E-04
   59.8800011      -6.89265144E-04
   60.0000000      -6.90758054E-04
   60.1199989      -6.92002592E-04
   60.2400017      -6.92993170E-04
   60.3600006      -6.93724316E-04
   60.4799995      -6.94190850E-04
   60.5999985      -6.94387767E-04
   60.7200012      -6.94310002E-04
   60.8400002      -6.93953014E-04
   60.9599991      -6.93312322E-04
   61.0800018      -6.92383735E-04
   61.2000008      -6.91163179E-04
   61.3199997      -6.89646811E-04
   61.4399986      -6.87831081E-04
   61.5600014      -6.85712614E-04
   61.6800003      -6.83288439E-04
   61.7999992      -6.80555706E-04
   61.9199982      -6.77511794E-04
   62.0400009      -6.74154609E-04
   62.1599998      -6.70482172E-04
   62.2799988      -6.66492910E-04
   62.4000015      -6.62185426E-04
   62.5200005      -6.57558790E-04
   62.6399994      -6.52612187E-04
   62.7599983      -6.47345325E-04
   62.8800011      -6.41758146E-04
   63.0000000      -6.35850942E-04
   63.1199989      -6.29624352E-04
   63.2400017      -6.23079424E-04
   63.3600006      -6.16217556E-04
   63.4799995      -6.09040319E-04
   63.5999985      -6.01549924E-04
   63.7200012      -5.93748642E-04
   63.8400002      -5.85639384E-04
   63.9599991      -5.77225292E-04
   64.0800018      -5.68510033E-04
   64.1999969      -5.59497625E-04
   64.3199997      -5.50192432E-04
   64.4400024      -5.40599227E-04
   64.5599976      -5.30722900E-04
   64.6800003      -5.20568865E-04
   64.8000031      -5.10142883E-04
   64.9199982      -4.99451067E-04
   65.0400009      -4.88499994E-04
   65.1600037      -4.77296591E-04
   65.2799988      -4.65848047E-04
   65.4000015      -4.54162044E-04
   65.5199966      -4.42246528E-04
   65.6399994      -4.30109794E-04
   65.7600021      -4.17760399E-04
   65.8799973      -4.05207247E-04
   66.0000000      -3.92459566E-04
   66.1200027      -3.79526959E-04
   66.2399979      -3.66419117E-04
   66.3600006      -3.53146199E-04
   66.4800034      -3.39718506E-04
   66.5999985      -3.26146663E-04
   66.7200012      -3.12441611E-04
   66.8399963      -2.98614439E-04
   66.9599991      -2.84676527E-04
   67.0800018      -2.70639401E-04
   67.1999969      -2.56514904E-04
   67.3199997      -2.42314956E-04
   67.4400024      -2.28051620E-04
   67.5599976      -2.13737178E-04
   67.6800003      -1.99384056E-04
   67.8000031      -1.85004756E-04
   67.9199982      -1.70611907E-04
   68.0400009      -1.56218244E-04
   68.1600037      -1.41836514E-04
   68.2799988      -1.27479507E-04
   68.4000015      -1.13160066E-04
   68.5199966      -9.88910397E-05
   68.6399994      -8.46853363E-05
   68.7600021      -7.05558268E-05
   68.8799973      -5.65153641E-05
   69.0000000      -4.25766921E-05
   69.1200027      -2.87524581E-05
   69.2399979      -1.50551750E-05
   69.3600006      -1.49720597E-06
   69.4800034       1.19091683E-05
   69.5999985       2.51517904E-05
   69.7200012       3.82186263E-05
   69.8399963       5.10978061E-05
   69.9599991       6.37776466E-05
   70.0800018       7.62467316E-05
   70.1999969       8.84939509E-05
   70.3199997       1.00508470E-04
   70.4400024       1.12279791E-04
   70.5599976       1.23797712E-04
   70.6800003       1.35052353E-04
   70.8000031       1.46034159E-04
   70.9199982       1.56733906E-04
   71.0400009       1.67142702E-04
   71.1600037       1.77252077E-04
   71.2799988       1.87053898E-04
   71.4000015       1.96540481E-04
   71.5199966       2.05704535E-04
   71.6399994       2.14539163E-04
   71.7600021       2.23037845E-04
   71.8799973       2.31194543E-04
   72.0000000       2.39003668E-04
   72.1200027       2.46460113E-04
   72.2399979       2.53559236E-04
   72.3600006       2.60296976E-04
   72.4800034       2.66669696E-04
   72.5999985       2.72674224E-04
   72.7200012       2.78307998E-04